[Molden Format]
made by pyscf v[2.10.0]
[Atoms] (AU)
Cr   1   24    -2.49590634431095     0.00008630757156    -0.00013410441443
Cr   2   24     2.49589970192362     0.00009747774268    -0.00013526470627
O   3   8    -0.00000198232270    -0.31337777322590     2.74893896974697
O   4   8    -0.00000925587856     2.53747308517977    -1.10306388853213
O   5   8     0.00000127367541    -2.22388444686427    -1.64597084497593
H   6   1     0.00003382987708     0.94728156401237     4.08168235220268
H   7   1     0.00106228308476     3.05888335248948    -2.86196050537966
H   8   1    -0.00083345803806    -4.00770344080561    -1.21723470457117
N   9   7    -5.00738946674064    -2.73196530796667     1.34438880269081
H   10   1    -4.13274932833534    -4.12333890041585     2.35157299543673
H   11   1    -5.77114516078753    -3.48503132966322    -0.25714316715081
H   12   1    -6.36321062493573    -1.89939443207042     2.43246534891805
N   13   7    -5.00740112446111     2.53037270004892     1.69376258369429
N   14   7    -5.00739700863761     0.20177045004333    -3.03824186080277
H   15   1    -6.36321349731944    -1.15682126396888    -2.86125020268286
H   16   1    -5.77115528405038     1.51993523984463     3.14670152576116
N   17   7     5.00739756610681    -2.73194291471209     1.34438647643795
N   18   7     5.00738584791511     2.53039511786994     1.69376025555171
N   19   7     5.00738992594409     0.20179285652598    -3.03824417571727
H   20   1    -4.13276768891437     4.09830942120420     2.39513740358636
H   21   1    -6.36322198218974     3.05638398559932     0.42869429619919
H   22   1    -4.13276038890235     0.02521252186353    -4.74680088099966
H   23   1    -5.77115810163203     1.96526835725211    -2.88964856090746
H   24   1     4.13276306664427    -4.12331998236762     2.35157076555991
H   25   1     5.77115479083186    -3.48500570119751    -0.25714628519891
H   26   1     6.36321485603252    -1.89936557973195     2.43246290172272
H   27   1     4.13274464937346     4.09832743029417     2.39513524929858
H   28   1     5.77114410065117     1.51996078894183     3.14669922407474
H   29   1     6.36320310571548     3.05641270376723     0.42869072839627
H   30   1     4.13275236512523     0.02523107897407    -4.74680231719152
H   31   1     5.77114213911546     1.96529463767332    -2.88965122353157
H   32   1     6.36321194396456    -1.15679341318525    -2.86125308262547
[GTO]
1 0
 s    8 1.00
          254477.80704  0.00024290477637401
          38131.797054  0.0018843523608945
          8675.2930607  0.0098009584389183
          2455.0099848    0.03982500865256
          799.16217787    0.12940543734993
          286.90021489      0.306290018085
          111.25413232    0.43462834975685
          43.864152636    0.22469562869153
 s    4 1.00
          279.32669173  -0.024363357905718
          86.274732376   -0.11511495393603
          13.555756113    0.55092266280841
          5.6978112751     0.5361135469137
 s    2 1.00
          8.5636582615   -0.37123017689407
          1.3988296768      1.168116945815
 s    1 1.00
         0.57288171116                   1
 s    1 1.00
        0.090096171317                   1
 s    1 1.00
        0.034125885135                   1
 p    6 1.00
          1306.4398864  0.0028292800654831
          309.25311441   0.022776629200026
          98.996273963    0.10564561899224
          36.756916451    0.29949944921292
          14.566657077    0.47706245356687
          5.8739937432    0.27654234376953
 p    3 1.00
          22.890999695  -0.019412106076979
          3.0855001822    0.38618875824718
          1.2132329118    0.67623908895117
 p    1 1.00
         0.44931680699                   1
 p    1 1.00
              0.120675                   1
 d    4 1.00
          43.720074476   0.022093259256368
          12.391242652    0.12801438774984
          4.2639442006    0.38652910276341
           1.552522179    0.64103301437156
 d    1 1.00
         0.53761929485                   1
 d    1 1.00
         0.16493173074                   1
 d    1 1.00
                 0.051                   1
 f    1 1.00
                 1.147                   1

2 0
 s    8 1.00
          254477.80704  0.00024290477637401
          38131.797054  0.0018843523608945
          8675.2930607  0.0098009584389183
          2455.0099848    0.03982500865256
          799.16217787    0.12940543734993
          286.90021489      0.306290018085
          111.25413232    0.43462834975685
          43.864152636    0.22469562869153
 s    4 1.00
          279.32669173  -0.024363357905718
          86.274732376   -0.11511495393603
          13.555756113    0.55092266280841
          5.6978112751     0.5361135469137
 s    2 1.00
          8.5636582615   -0.37123017689407
          1.3988296768      1.168116945815
 s    1 1.00
         0.57288171116                   1
 s    1 1.00
        0.090096171317                   1
 s    1 1.00
        0.034125885135                   1
 p    6 1.00
          1306.4398864  0.0028292800654831
          309.25311441   0.022776629200026
          98.996273963    0.10564561899224
          36.756916451    0.29949944921292
          14.566657077    0.47706245356687
          5.8739937432    0.27654234376953
 p    3 1.00
          22.890999695  -0.019412106076979
          3.0855001822    0.38618875824718
          1.2132329118    0.67623908895117
 p    1 1.00
         0.44931680699                   1
 p    1 1.00
              0.120675                   1
 d    4 1.00
          43.720074476   0.022093259256368
          12.391242652    0.12801438774984
          4.2639442006    0.38652910276341
           1.552522179    0.64103301437156
 d    1 1.00
         0.53761929485                   1
 d    1 1.00
         0.16493173074                   1
 d    1 1.00
                 0.051                   1
 f    1 1.00
                 1.147                   1

3 0
 s    5 1.00
          2266.1767785  -0.0053893503921743
          340.87010191   -0.04023472138896
          77.363135167   -0.18008184205526
           21.47964494   -0.46828857657651
          6.6589433124   -0.44692617160187
 s    1 1.00
         0.80975975668                   1
 s    1 1.00
         0.25530772234                   1
 p    3 1.00
          17.721504317   0.062630248763161
           3.863550544    0.33331138482352
          1.0480920883    0.74148638308122
 p    1 1.00
         0.27641544411                   1
 d    1 1.00
                   1.2                   1

4 0
 s    5 1.00
          2266.1767785  -0.0053893503921743
          340.87010191   -0.04023472138896
          77.363135167   -0.18008184205526
           21.47964494   -0.46828857657651
          6.6589433124   -0.44692617160187
 s    1 1.00
         0.80975975668                   1
 s    1 1.00
         0.25530772234                   1
 p    3 1.00
          17.721504317   0.062630248763161
           3.863550544    0.33331138482352
          1.0480920883    0.74148638308122
 p    1 1.00
         0.27641544411                   1
 d    1 1.00
                   1.2                   1

5 0
 s    5 1.00
          2266.1767785  -0.0053893503921743
          340.87010191   -0.04023472138896
          77.363135167   -0.18008184205526
           21.47964494   -0.46828857657651
          6.6589433124   -0.44692617160187
 s    1 1.00
         0.80975975668                   1
 s    1 1.00
         0.25530772234                   1
 p    3 1.00
          17.721504317   0.062630248763161
           3.863550544    0.33331138482352
          1.0480920883    0.74148638308122
 p    1 1.00
         0.27641544411                   1
 d    1 1.00
                   1.2                   1

6 0
 s    3 1.00
             13.010701   0.033485484812989
             1.9622572    0.23472187088125
            0.44453796    0.81377028525955
 s    1 1.00
            0.12194962                   1
 p    1 1.00
                   0.8                   1

7 0
 s    3 1.00
             13.010701   0.033485484812989
             1.9622572    0.23472187088125
            0.44453796    0.81377028525955
 s    1 1.00
            0.12194962                   1
 p    1 1.00
                   0.8                   1

8 0
 s    3 1.00
             13.010701   0.033485484812989
             1.9622572    0.23472187088125
            0.44453796    0.81377028525955
 s    1 1.00
            0.12194962                   1
 p    1 1.00
                   0.8                   1

9 0
 s    5 1.00
          1712.8415853  -0.0054477995804909
          257.64812677  -0.040627174632423
          58.458245853   -0.18111962250584
          16.198367905   -0.46843975563173
          5.0052600809   -0.44616846289231
 s    1 1.00
         0.58731856571                   1
 s    1 1.00
         0.18764592253                   1
 p    3 1.00
          13.571470233  -0.058848116969522
          2.9257372874   -0.32024624762471
         0.79927750754   -0.75328226520436
 p    1 1.00
         0.21954348034                   1
 d    1 1.00
                     1                   1

10 0
 s    3 1.00
             13.010701   0.033485484812989
             1.9622572    0.23472187088125
            0.44453796    0.81377028525955
 s    1 1.00
            0.12194962                   1
 p    1 1.00
                   0.8                   1

11 0
 s    3 1.00
             13.010701   0.033485484812989
             1.9622572    0.23472187088125
            0.44453796    0.81377028525955
 s    1 1.00
            0.12194962                   1
 p    1 1.00
                   0.8                   1

12 0
 s    3 1.00
             13.010701   0.033485484812989
             1.9622572    0.23472187088125
            0.44453796    0.81377028525955
 s    1 1.00
            0.12194962                   1
 p    1 1.00
                   0.8                   1

13 0
 s    5 1.00
          1712.8415853  -0.0054477995804909
          257.64812677  -0.040627174632423
          58.458245853   -0.18111962250584
          16.198367905   -0.46843975563173
          5.0052600809   -0.44616846289231
 s    1 1.00
         0.58731856571                   1
 s    1 1.00
         0.18764592253                   1
 p    3 1.00
          13.571470233  -0.058848116969522
          2.9257372874   -0.32024624762471
         0.79927750754   -0.75328226520436
 p    1 1.00
         0.21954348034                   1
 d    1 1.00
                     1                   1

14 0
 s    5 1.00
          1712.8415853  -0.0054477995804909
          257.64812677  -0.040627174632423
          58.458245853   -0.18111962250584
          16.198367905   -0.46843975563173
          5.0052600809   -0.44616846289231
 s    1 1.00
         0.58731856571                   1
 s    1 1.00
         0.18764592253                   1
 p    3 1.00
          13.571470233  -0.058848116969522
          2.9257372874   -0.32024624762471
         0.79927750754   -0.75328226520436
 p    1 1.00
         0.21954348034                   1
 d    1 1.00
                     1                   1

15 0
 s    3 1.00
             13.010701   0.033485484812989
             1.9622572    0.23472187088125
            0.44453796    0.81377028525955
 s    1 1.00
            0.12194962                   1
 p    1 1.00
                   0.8                   1

16 0
 s    3 1.00
             13.010701   0.033485484812989
             1.9622572    0.23472187088125
            0.44453796    0.81377028525955
 s    1 1.00
            0.12194962                   1
 p    1 1.00
                   0.8                   1

17 0
 s    5 1.00
          1712.8415853  -0.0054477995804909
          257.64812677  -0.040627174632423
          58.458245853   -0.18111962250584
          16.198367905   -0.46843975563173
          5.0052600809   -0.44616846289231
 s    1 1.00
         0.58731856571                   1
 s    1 1.00
         0.18764592253                   1
 p    3 1.00
          13.571470233  -0.058848116969522
          2.9257372874   -0.32024624762471
         0.79927750754   -0.75328226520436
 p    1 1.00
         0.21954348034                   1
 d    1 1.00
                     1                   1

18 0
 s    5 1.00
          1712.8415853  -0.0054477995804909
          257.64812677  -0.040627174632423
          58.458245853   -0.18111962250584
          16.198367905   -0.46843975563173
          5.0052600809   -0.44616846289231
 s    1 1.00
         0.58731856571                   1
 s    1 1.00
         0.18764592253                   1
 p    3 1.00
          13.571470233  -0.058848116969522
          2.9257372874   -0.32024624762471
         0.79927750754   -0.75328226520436
 p    1 1.00
         0.21954348034                   1
 d    1 1.00
                     1                   1

19 0
 s    5 1.00
          1712.8415853  -0.0054477995804909
          257.64812677  -0.040627174632423
          58.458245853   -0.18111962250584
          16.198367905   -0.46843975563173
          5.0052600809   -0.44616846289231
 s    1 1.00
         0.58731856571                   1
 s    1 1.00
         0.18764592253                   1
 p    3 1.00
          13.571470233  -0.058848116969522
          2.9257372874   -0.32024624762471
         0.79927750754   -0.75328226520436
 p    1 1.00
         0.21954348034                   1
 d    1 1.00
                     1                   1

20 0
 s    3 1.00
             13.010701   0.033485484812989
             1.9622572    0.23472187088125
            0.44453796    0.81377028525955
 s    1 1.00
            0.12194962                   1
 p    1 1.00
                   0.8                   1

21 0
 s    3 1.00
             13.010701   0.033485484812989
             1.9622572    0.23472187088125
            0.44453796    0.81377028525955
 s    1 1.00
            0.12194962                   1
 p    1 1.00
                   0.8                   1

22 0
 s    3 1.00
             13.010701   0.033485484812989
             1.9622572    0.23472187088125
            0.44453796    0.81377028525955
 s    1 1.00
            0.12194962                   1
 p    1 1.00
                   0.8                   1

23 0
 s    3 1.00
             13.010701   0.033485484812989
             1.9622572    0.23472187088125
            0.44453796    0.81377028525955
 s    1 1.00
            0.12194962                   1
 p    1 1.00
                   0.8                   1

24 0
 s    3 1.00
             13.010701   0.033485484812989
             1.9622572    0.23472187088125
            0.44453796    0.81377028525955
 s    1 1.00
            0.12194962                   1
 p    1 1.00
                   0.8                   1

25 0
 s    3 1.00
             13.010701   0.033485484812989
             1.9622572    0.23472187088125
            0.44453796    0.81377028525955
 s    1 1.00
            0.12194962                   1
 p    1 1.00
                   0.8                   1

26 0
 s    3 1.00
             13.010701   0.033485484812989
             1.9622572    0.23472187088125
            0.44453796    0.81377028525955
 s    1 1.00
            0.12194962                   1
 p    1 1.00
                   0.8                   1

27 0
 s    3 1.00
             13.010701   0.033485484812989
             1.9622572    0.23472187088125
            0.44453796    0.81377028525955
 s    1 1.00
            0.12194962                   1
 p    1 1.00
                   0.8                   1

28 0
 s    3 1.00
             13.010701   0.033485484812989
             1.9622572    0.23472187088125
            0.44453796    0.81377028525955
 s    1 1.00
            0.12194962                   1
 p    1 1.00
                   0.8                   1

29 0
 s    3 1.00
             13.010701   0.033485484812989
             1.9622572    0.23472187088125
            0.44453796    0.81377028525955
 s    1 1.00
            0.12194962                   1
 p    1 1.00
                   0.8                   1

30 0
 s    3 1.00
             13.010701   0.033485484812989
             1.9622572    0.23472187088125
            0.44453796    0.81377028525955
 s    1 1.00
            0.12194962                   1
 p    1 1.00
                   0.8                   1

31 0
 s    3 1.00
             13.010701   0.033485484812989
             1.9622572    0.23472187088125
            0.44453796    0.81377028525955
 s    1 1.00
            0.12194962                   1
 p    1 1.00
                   0.8                   1

32 0
 s    3 1.00
             13.010701   0.033485484812989
             1.9622572    0.23472187088125
            0.44453796    0.81377028525955
 s    1 1.00
            0.12194962                   1
 p    1 1.00
                   0.8                   1

[5d]
[7f]
[9g]

[MO]
 Sym= A
 Ene=               0
 Spin= Alpha
 Occup=    1.00000
   1     -0.77461236888751
   2    -0.0053958131797275
   3    0.0020647523033818
   4    -0.0018515039880162
   5    0.0022729557831341
   6    -0.00014321178318835
   7    1.5626441539554e-07
   8    1.6961721927527e-09
   9    -6.4247843570914e-10
  10    3.2164585284611e-06
  11     -4.7627411245e-09
  12    5.0224803779788e-09
  13    -3.2961037176528e-05
  14    1.3011458461615e-08
  15    -2.1933822144451e-08
  16    0.0003858876463966
  17    -1.3217510413739e-08
  18    7.7248763907945e-08
  19    -5.4623738269177e-06
  20    -1.2385885082286e-09
  21    -2.5443630123517e-10
  22    9.4594506586128e-06
  23    -2.9550729105151e-10
  24    3.3199674807825e-05
  25    4.3422261460349e-09
  26    2.1082226445873e-09
  27    -5.750110188528e-05
  28    -1.5242804861824e-09
  29    -0.00025380512595991
  30    1.2850072423498e-08
  31    -2.4158912433586e-08
  32    0.0004396438047799
  33    3.8141905701614e-08
  34    -5.35822204381e-05
  35    5.0786092911689e-08
  36    2.6786580977697e-08
  37    9.275907759489e-05
  38    -7.0030258381386e-08
  39    4.9799076859599e-07
  40    -1.1075599148333e-05
  41    -1.1926163218914e-06
  42    3.8550622921312e-07
  43    -7.6451779912022e-10
  44    1.4300055671268e-05
  45    -3.0754047056281e-07
  46      0.62892652487947
  47    0.0043787746472824
  48    -0.0016876034310137
  49    0.0015361606180577
  50    -0.0019965103980345
  51    0.00010970905715839
  52    3.3775468668272e-07
  53    -5.3725228478682e-10
  54    -7.0282384046285e-10
  55    1.9685408102698e-06
  56    1.5108771962004e-09
  57    -1.9200837898699e-09
  58    -3.3076606096096e-05
  59    -5.8029887435827e-09
  60    1.4395172005497e-08
  61    0.00044739462568338
  62    3.0831500084085e-08
  63    -6.7821718786917e-08
  64    3.0060068822331e-06
  65    8.4896338599512e-11
  66    1.5638248230794e-09
  67    -5.2058585426487e-06
  68    7.9802892076205e-11
  69    -2.3526425270977e-05
  70    -3.1808855655659e-09
  71    -6.0908229591741e-09
  72    4.0748175189471e-05
  73    -2.8126691038387e-11
  74    0.00022772979880413
  75    6.0184131419857e-08
  76    1.9484056127543e-08
  77    -0.00039448115239683
  78    -8.8717923864825e-09
  79    5.7508220095116e-05
  80    2.4314940263345e-08
  81    5.1313086307379e-08
  82    -9.9668814563401e-05
  83    1.1712026021797e-07
  84    -7.5343792074072e-07
  85    -1.1734067982794e-05
  86    9.953499293935e-07
  87    -5.8396842625318e-07
  88    8.2689559798288e-10
  89    1.5148165386111e-05
  90    2.5748652425075e-07
  91    5.3905399448829e-07
  92    8.6621830027571e-06
  93    -3.7209298188203e-05
  94    -1.0967370675728e-05
  95    -3.9124590585226e-07
  96    4.7492799460326e-07
  97    0.00018991549132111
  98    -1.86489571471e-06
  99    1.1628664745422e-05
 100    -1.4018141029502e-06
 101    -2.0469451679701e-05
 102    -5.4362741686381e-07
 103    7.9427002474179e-07
 104    3.6576391059208e-06
 105    5.3936338375207e-07
 106    8.6676557899448e-06
 107    -3.7249603425851e-05
 108    -1.0953234691639e-05
 109    6.0597928801328e-07
 110    9.6910650448595e-08
 111    0.00018982290485339
 112    1.1031590823319e-05
 113    -4.1811818178492e-06
 114    -7.5303636544736e-07
 115    7.0798620214021e-06
 116    9.745045075955e-07
 117    1.1705435777888e-06
 118    -1.9552536007852e-05
 119    5.3796558533455e-07
 120    8.649351140621e-06
 121    -3.7164860272222e-05
 122    -1.0951861894439e-05
 123    -2.1828062005048e-07
 124    -5.7894259670388e-07
 125    0.00018980190145793
 126    -9.1711253882318e-06
 127    -7.4090766189339e-06
 128    6.7778728140067e-08
 129    1.3392744987235e-05
 130    -4.4188449597258e-07
 131    1.6381017424446e-06
 132    1.5910453740087e-05
 133    3.9618053239955e-06
 134    -6.7652026050795e-06
 135    -3.7988099722205e-06
 136    -8.1675929751019e-07
 137    -2.7403196431909e-07
 138    3.957846943196e-06
 139    -6.6858543944938e-06
 140    -3.7352808031886e-06
 141    1.5315479689826e-07
 142    8.3833339808996e-07
 143    3.9608400036001e-06
 144    -6.9335118491485e-06
 145    -3.7141690020116e-06
 146    6.2252552055138e-07
 147    -5.9421200292151e-07
 148    5.6218762976121e-06
 149    0.0001045177900472
 150    -0.00043530724566648
 151    -9.9137306459022e-06
 152    -1.4213245390162e-05
 153    7.3124450420075e-06
 154    -4.1975309205999e-05
 155    -0.00021517364451283
 156    0.00012736797750594
 157    -1.4404027177444e-07
 158    2.4455648090546e-06
 159    4.8133343820551e-06
 160    1.0633969210921e-05
 161    -5.073309370025e-06
 162    -1.3981004791782e-05
 163    -3.4260923830143e-05
 164    7.5599304658298e-06
 165    1.055318058714e-06
 166    1.180233270959e-06
 167    4.7743164892323e-05
 168    4.3581793783266e-06
 169    -1.1889691779295e-06
 170    1.5742532233289e-05
 171    3.083989192573e-06
 172    4.4251468349925e-05
 173    -1.5686741311611e-05
 174    1.7257936461643e-06
 175    6.8213497690838e-06
 176    -1.0642480413175e-05
 177    5.6215571211876e-06
 178    0.0001045079117367
 179    -0.00043523868712253
 180    -9.9119101885529e-06
 181    1.3438085975099e-05
 182    8.6522123831252e-06
 183    -4.1957025976322e-05
 184    0.0002178880138204
 185    0.00012263169539339
 186    -3.2797963763127e-06
 187    3.1702631029113e-06
 188    -6.9016026968104e-06
 189    8.8250429857152e-06
 190    4.6531189746113e-06
 191    5.6211003360219e-06
 192    0.00010450450111236
 193    -0.00043525934189755
 194    -9.9103435168023e-06
 195    7.7463223357604e-07
 196    -1.5961652163354e-05
 197    -4.1957677838369e-05
 198    -2.712158469765e-06
 199    -0.00025002406034845
 200    -1.0499857885546e-05
 201    -5.6145370471094e-06
 202    2.0904407523728e-06
 203    4.6563316878542e-06
 204    4.1708180197908e-07
 205    4.4255032016666e-05
 206    -1.5738625344515e-05
 207    1.7199374712347e-06
 208    5.8058689027816e-06
 209    1.1226241338281e-05
 210    4.774525311661e-05
 211    4.3745904407802e-06
 212    -1.1873185704468e-06
 213    -5.1989748728646e-06
 214    -1.5176952196373e-05
 215    -4.6795966407053e-06
 216    -8.5616777528849e-05
 217    0.0003475606459605
 218    -8.5573987841172e-06
 219    1.1767787283642e-05
 220    -6.4467018674337e-06
 221    -3.4022616283626e-05
 222    0.00017342108268049
 223    -0.00011048208308019
 224    5.2716486423539e-07
 225    1.3911566250561e-06
 226    -3.8628828678651e-06
 227    -9.0995869257534e-06
 228    -4.5622016287666e-06
 229    -4.6791834163306e-06
 230    -8.5613801188582e-05
 231    0.0003475752671118
 232    -8.5560373627411e-06
 233    -1.14671024532e-05
 234    -6.9671354565243e-06
 235    -3.3995549488684e-05
 236    -0.00018238714009425
 237    -9.4941278818556e-05
 238    2.9494015061466e-06
 239    3.254692952072e-06
 240    5.4752425615479e-06
 241    -7.7024261739012e-06
 242    3.485614289844e-06
 243    -4.6790180615355e-06
 244    -8.5613799846373e-05
 245     0.000347600699911
 246    -8.5540747156562e-06
 247    -2.9914242317379e-07
 248    1.3413531485104e-05
 249    -3.400510143032e-05
 250    8.9862526726501e-06
 251    0.00020546027172576
 252    8.7411967193524e-06
 253    -4.6478201628266e-06
 254    -1.6140679260265e-06
 255    -4.3595205487565e-06
 256    1.0768411523258e-06
 257    -1.3982390537722e-05
 258    -3.4288061407613e-05
 259    7.5626711946671e-06
 260    4.9499803013557e-07
 261    -1.5001976686078e-06
 262    4.4249071290012e-05
 263    -1.5769112405929e-05
 264    1.7170077278132e-06
 265    -1.2625579217015e-05
 266    -5.866770617434e-07
 267    -1.3982219792047e-05
 268    -3.4281943477593e-05
 269    7.5612615232132e-06
 270    -1.5489815982847e-06
 271    3.2114273103057e-07
 272    4.7740493044981e-05
 273     4.32491921874e-06
 274    -1.1922622098397e-06
 275    -1.0540287324108e-05
 276    1.2090649725935e-05
 277    1.3112586414285e-05
 278    2.8085446092521e-05
 279    5.9766877040543e-06
 280    -7.0084762130299e-08
 281    -8.7313399268429e-07
 282    -4.1849457729763e-05
 283    -5.3123749929477e-06
 284    5.5921890397777e-07
 285    -1.3724686384316e-05
 286    -2.2337287463727e-06
 287    -3.5339740694516e-05
 288    2.5541938962359e-05
 289    8.4146274605975e-07
 290    -6.3149547796246e-06
 291    7.8966230805976e-06
 292    1.3119010045814e-05
 293    2.8035614132689e-05
 294    5.9742797126015e-06
 295    -7.2084123008568e-07
 296    4.9902862258964e-07
 297    -4.1852045107011e-05
 298    -5.3778689576543e-06
 299    5.5861867441855e-07
 300    4.9283096114015e-06
 301    1.3008740599009e-05
 302    -3.533275832528e-05
 303    2.5455697806792e-05
 304    8.4296849726302e-07
 305    9.9957405325589e-06
 306    1.5154180891273e-06
 307    1.3122144923433e-05
 308    2.809903419213e-05
 309    5.9766942438643e-06
 310    7.9276280710393e-07
 311    3.7756848757648e-07
 312    -4.1857820447166e-05
 313    -5.3532961085847e-06
 314    5.5690458631986e-07
 315    8.8022110236787e-06
 316    -1.0769917216252e-05
 317    -3.5338833575677e-05
 318    2.5527155355825e-05
 319    8.3890405501125e-07
 320    -3.6853408414174e-06
 321    -9.4169034391596e-06
 Sym= A
 Ene=               1
 Spin= Alpha
 Occup=    1.00000
   1     -0.62892944171316
   2    -0.0043918037735854
   3    0.0016219932439456
   4    -0.0013432032932418
   5    0.0011100237608575
   6    -0.00014818259500789
   7    -8.9987747805085e-07
   8    1.4623709965643e-09
   9    -4.6170146533076e-10
  10    5.7433256442362e-06
  11    -4.150375305981e-09
  12    3.9338980186902e-09
  13    3.9806253051605e-06
  14    1.0220799092075e-08
  15    -1.7850978950773e-08
  16    -0.00033952492752922
  17    -1.637009687847e-08
  18    4.6679912573082e-08
  19    -1.1391483192874e-05
  20    -4.0682495585187e-10
  21    -2.4838161428637e-10
  22    1.9728914410988e-05
  23    1.8297131828395e-09
  24    4.3649497949639e-05
  25    -4.5547857511792e-10
  26    2.4157133154476e-10
  27    -7.5600368774857e-05
  28    -1.0203172955773e-08
  29    -0.00010060111923171
  30    1.1847424421418e-08
  31    7.9463185540187e-09
  32    0.00017426361689536
  33    5.3825025721567e-08
  34    2.4817587443472e-05
  35    -1.8100916091183e-07
  36    -3.3748186186491e-08
  37    -4.3185496421958e-05
  38    -7.8259895563885e-08
  39    -1.296303078661e-06
  40    4.3513349105543e-06
  41    -8.3640198704362e-07
  42    -1.0058295511212e-06
  43    1.716578492908e-09
  44    -5.6169564861714e-06
  45    -2.156250821933e-07
  46     -0.77461473707341
  47    -0.0054063916072848
  48    0.0020114831863593
  49    -0.0016948401362289
  50    0.0015531907254795
  51    -0.0001744277840397
  52    8.4851577828435e-07
  53    9.0070793148345e-10
  54    6.0415465055135e-10
  55    -6.2813788330171e-06
  56    -2.8236406966249e-09
  57    3.6754581743321e-09
  58    2.8737384767131e-06
  59    4.5756150401986e-09
  60    -1.9829690065814e-08
  61    0.00025302987565191
  62    1.570235937081e-08
  63    6.2853626335376e-08
  64    -1.2270583507401e-05
  65    4.9138687359272e-10
  66    -8.0769193346777e-10
  67    2.1251081520719e-05
  68    -2.047973923986e-09
  69    4.9538195674707e-05
  70    2.6486567777421e-10
  71    2.7644680828338e-09
  72    -8.5798075210662e-05
  73    1.155426563866e-08
  74    -0.00015058961867344
  75    -1.4577833135474e-08
  76    -1.1084679164637e-08
  77    0.00026084118035498
  78    -7.8395471129709e-08
  79    1.3309020591183e-05
  80    1.3190077420382e-07
  81    -7.6006769257257e-08
  82    -2.3202526864373e-05
  83    1.0336664524881e-07
  84    -1.1663500019609e-06
  85    -1.983746469826e-06
  86    -1.0636025896176e-06
  87    -9.0518383196443e-07
  88    -1.0169866955967e-09
  89    2.5603147798573e-06
  90    -2.7399736848442e-07
  91    5.191716700689e-06
  92    8.3456235890797e-05
  93    -0.00035860849247284
  94    1.1383508687964e-06
  95    -3.7576410772232e-06
  96    4.581268433873e-06
  97    -1.9711686538606e-05
  98    -1.8029523470253e-05
  99    0.00011208311005578
 100    -1.3512835655251e-05
 101    2.124382853494e-06
 102    -5.24489279812e-06
 103    7.6495799267148e-06
 104    -3.798533935571e-07
 105    5.1895543677857e-06
 106    8.3411844879671e-05
 107    -0.0003584112640974
 108    1.1361932580614e-06
 109    5.8612778721797e-06
 110    9.5964184868246e-07
 111    -1.9716822364779e-05
 112    0.00010610253201731
 113    -4.0585696582348e-05
 114    -7.1906789294367e-06
 115    -7.3148576253228e-07
 116    9.4246827003877e-06
 117    1.1281483779015e-05
 118    2.0287735707477e-06
 119    5.1904541080555e-06
 120    8.3408806168949e-05
 121    -0.0003583269129728
 122    1.1373519481557e-06
 123    -2.098596209265e-06
 124    -5.5574432018145e-06
 125    -1.9691192874996e-05
 126    -8.8205169783503e-05
 127    -7.1560165134771e-05
 128    6.3309341200427e-07
 129    -1.3893033875619e-06
 130    -4.2028556715392e-06
 131    1.5794295731691e-05
 132    -1.6542770569862e-06
 133    3.8212535318599e-05
 134    -6.5194134112633e-05
 135    3.9362325701505e-07
 136    -7.8712015843573e-06
 137    -2.6386418652704e-06
 138    3.813902683348e-05
 139    -6.5649042836582e-05
 140    3.6720313005247e-07