[Molden Format]
made by pyscf v[2.10.0]
[Atoms] (AU)
Cr   1   24    -2.49590634431095     0.00008630757156    -0.00013410441443
Cr   2   24     2.49589970192362     0.00009747774268    -0.00013526470627
O   3   8    -0.00000198232270    -0.31337777322590     2.74893896974697
O   4   8    -0.00000925587856     2.53747308517977    -1.10306388853213
O   5   8     0.00000127367541    -2.22388444686427    -1.64597084497593
H   6   1     0.00003382987708     0.94728156401237     4.08168235220268
H   7   1     0.00106228308476     3.05888335248948    -2.86196050537966
H   8   1    -0.00083345803806    -4.00770344080561    -1.21723470457117
N   9   7    -5.00738946674064    -2.73196530796667     1.34438880269081
H   10   1    -4.13274932833534    -4.12333890041585     2.35157299543673
H   11   1    -5.77114516078753    -3.48503132966322    -0.25714316715081
H   12   1    -6.36321062493573    -1.89939443207042     2.43246534891805
N   13   7    -5.00740112446111     2.53037270004892     1.69376258369429
N   14   7    -5.00739700863761     0.20177045004333    -3.03824186080277
H   15   1    -6.36321349731944    -1.15682126396888    -2.86125020268286
H   16   1    -5.77115528405038     1.51993523984463     3.14670152576116
N   17   7     5.00739756610681    -2.73194291471209     1.34438647643795
N   18   7     5.00738584791511     2.53039511786994     1.69376025555171
N   19   7     5.00738992594409     0.20179285652598    -3.03824417571727
H   20   1    -4.13276768891437     4.09830942120420     2.39513740358636
H   21   1    -6.36322198218974     3.05638398559932     0.42869429619919
H   22   1    -4.13276038890235     0.02521252186353    -4.74680088099966
H   23   1    -5.77115810163203     1.96526835725211    -2.88964856090746
H   24   1     4.13276306664427    -4.12331998236762     2.35157076555991
H   25   1     5.77115479083186    -3.48500570119751    -0.25714628519891
H   26   1     6.36321485603252    -1.89936557973195     2.43246290172272
H   27   1     4.13274464937346     4.09832743029417     2.39513524929858
H   28   1     5.77114410065117     1.51996078894183     3.14669922407474
H   29   1     6.36320310571548     3.05641270376723     0.42869072839627
H   30   1     4.13275236512523     0.02523107897407    -4.74680231719152
H   31   1     5.77114213911546     1.96529463767332    -2.88965122353157
H   32   1     6.36321194396456    -1.15679341318525    -2.86125308262547
[GTO]
1 0
 s    8 1.00
          254477.80704  0.00024290477637401
          38131.797054  0.0018843523608945
          8675.2930607  0.0098009584389183
          2455.0099848    0.03982500865256
          799.16217787    0.12940543734993
          286.90021489      0.306290018085
          111.25413232    0.43462834975685
          43.864152636    0.22469562869153
 s    4 1.00
          279.32669173  -0.024363357905718
          86.274732376   -0.11511495393603
          13.555756113    0.55092266280841
          5.6978112751     0.5361135469137
 s    2 1.00
          8.5636582615   -0.37123017689407
          1.3988296768      1.168116945815
 s    1 1.00
         0.57288171116                   1
 s    1 1.00
        0.090096171317                   1
 s    1 1.00
        0.034125885135                   1
 p    6 1.00
          1306.4398864  0.0028292800654831
          309.25311441   0.022776629200026
          98.996273963    0.10564561899224
          36.756916451    0.29949944921292
          14.566657077    0.47706245356687
          5.8739937432    0.27654234376953
 p    3 1.00
          22.890999695  -0.019412106076979
          3.0855001822    0.38618875824718
          1.2132329118    0.67623908895117
 p    1 1.00
         0.44931680699                   1
 p    1 1.00
              0.120675                   1
 d    4 1.00
          43.720074476   0.022093259256368
          12.391242652    0.12801438774984
          4.2639442006    0.38652910276341
           1.552522179    0.64103301437156
 d    1 1.00
         0.53761929485                   1
 d    1 1.00
         0.16493173074                   1
 d    1 1.00
                 0.051                   1
 f    1 1.00
                 1.147                   1

2 0
 s    8 1.00
          254477.80704  0.00024290477637401
          38131.797054  0.0018843523608945
          8675.2930607  0.0098009584389183
          2455.0099848    0.03982500865256
          799.16217787    0.12940543734993
          286.90021489      0.306290018085
          111.25413232    0.43462834975685
          43.864152636    0.22469562869153
 s    4 1.00
          279.32669173  -0.024363357905718
          86.274732376   -0.11511495393603
          13.555756113    0.55092266280841
          5.6978112751     0.5361135469137
 s    2 1.00
          8.5636582615   -0.37123017689407
          1.3988296768      1.168116945815
 s    1 1.00
         0.57288171116                   1
 s    1 1.00
        0.090096171317                   1
 s    1 1.00
        0.034125885135                   1
 p    6 1.00
          1306.4398864  0.0028292800654831
          309.25311441   0.022776629200026
          98.996273963    0.10564561899224
          36.756916451    0.29949944921292
          14.566657077    0.47706245356687
          5.8739937432    0.27654234376953
 p    3 1.00
          22.890999695  -0.019412106076979
          3.0855001822    0.38618875824718
          1.2132329118    0.67623908895117
 p    1 1.00
         0.44931680699                   1
 p    1 1.00
              0.120675                   1
 d    4 1.00
          43.720074476   0.022093259256368
          12.391242652    0.12801438774984
          4.2639442006    0.38652910276341
           1.552522179    0.64103301437156
 d    1 1.00
         0.53761929485                   1
 d    1 1.00
         0.16493173074                   1
 d    1 1.00
                 0.051                   1
 f    1 1.00
                 1.147                   1

3 0
 s    5 1.00
          2266.1767785  -0.0053893503921743
          340.87010191   -0.04023472138896
          77.363135167   -0.18008184205526
           21.47964494   -0.46828857657651
          6.6589433124   -0.44692617160187
 s    1 1.00
         0.80975975668                   1
 s    1 1.00
         0.25530772234                   1
 p    3 1.00
          17.721504317   0.062630248763161
           3.863550544    0.33331138482352
          1.0480920883    0.74148638308122
 p    1 1.00
         0.27641544411                   1
 d    1 1.00
                   1.2                   1

4 0
 s    5 1.00
          2266.1767785  -0.0053893503921743
          340.87010191   -0.04023472138896
          77.363135167   -0.18008184205526
           21.47964494   -0.46828857657651
          6.6589433124   -0.44692617160187
 s    1 1.00
         0.80975975668                   1
 s    1 1.00
         0.25530772234                   1
 p    3 1.00
          17.721504317   0.062630248763161
           3.863550544    0.33331138482352
          1.0480920883    0.74148638308122
 p    1 1.00
         0.27641544411                   1
 d    1 1.00
                   1.2                   1

5 0
 s    5 1.00
          2266.1767785  -0.0053893503921743
          340.87010191   -0.04023472138896
          77.363135167   -0.18008184205526
           21.47964494   -0.46828857657651
          6.6589433124   -0.44692617160187
 s    1 1.00
         0.80975975668                   1
 s    1 1.00
         0.25530772234                   1
 p    3 1.00
          17.721504317   0.062630248763161
           3.863550544    0.33331138482352
          1.0480920883    0.74148638308122
 p    1 1.00
         0.27641544411                   1
 d    1 1.00
                   1.2                   1

6 0
 s    3 1.00
             13.010701   0.033485484812989
             1.9622572    0.23472187088125
            0.44453796    0.81377028525955
 s    1 1.00
            0.12194962                   1
 p    1 1.00
                   0.8                   1

7 0
 s    3 1.00
             13.010701   0.033485484812989
             1.9622572    0.23472187088125
            0.44453796    0.81377028525955
 s    1 1.00
            0.12194962                   1
 p    1 1.00
                   0.8                   1

8 0
 s    3 1.00
             13.010701   0.033485484812989
             1.9622572    0.23472187088125
            0.44453796    0.81377028525955
 s    1 1.00
            0.12194962                   1
 p    1 1.00
                   0.8                   1

9 0
 s    5 1.00
          1712.8415853  -0.0054477995804909
          257.64812677  -0.040627174632423
          58.458245853   -0.18111962250584
          16.198367905   -0.46843975563173
          5.0052600809   -0.44616846289231
 s    1 1.00
         0.58731856571                   1
 s    1 1.00
         0.18764592253                   1
 p    3 1.00
          13.571470233  -0.058848116969522
          2.9257372874   -0.32024624762471
         0.79927750754   -0.75328226520436
 p    1 1.00
         0.21954348034                   1
 d    1 1.00
                     1                   1

10 0
 s    3 1.00
             13.010701   0.033485484812989
             1.9622572    0.23472187088125
            0.44453796    0.81377028525955
 s    1 1.00
            0.12194962                   1
 p    1 1.00
                   0.8                   1

11 0
 s    3 1.00
             13.010701   0.033485484812989
             1.9622572    0.23472187088125
            0.44453796    0.81377028525955
 s    1 1.00
            0.12194962                   1
 p    1 1.00
                   0.8                   1

12 0
 s    3 1.00
             13.010701   0.033485484812989
             1.9622572    0.23472187088125
            0.44453796    0.81377028525955
 s    1 1.00
            0.12194962                   1
 p    1 1.00
                   0.8                   1

13 0
 s    5 1.00
          1712.8415853  -0.0054477995804909
          257.64812677  -0.040627174632423
          58.458245853   -0.18111962250584
          16.198367905   -0.46843975563173
          5.0052600809   -0.44616846289231
 s    1 1.00
         0.58731856571                   1
 s    1 1.00
         0.18764592253                   1
 p    3 1.00
          13.571470233  -0.058848116969522
          2.9257372874   -0.32024624762471
         0.79927750754   -0.75328226520436
 p    1 1.00
         0.21954348034                   1
 d    1 1.00
                     1                   1

14 0
 s    5 1.00
          1712.8415853  -0.0054477995804909
          257.64812677  -0.040627174632423
          58.458245853   -0.18111962250584
          16.198367905   -0.46843975563173
          5.0052600809   -0.44616846289231
 s    1 1.00
         0.58731856571                   1
 s    1 1.00
         0.18764592253                   1
 p    3 1.00
          13.571470233  -0.058848116969522
          2.9257372874   -0.32024624762471
         0.79927750754   -0.75328226520436
 p    1 1.00
         0.21954348034                   1
 d    1 1.00
                     1                   1

15 0
 s    3 1.00
             13.010701   0.033485484812989
             1.9622572    0.23472187088125
            0.44453796    0.81377028525955
 s    1 1.00
            0.12194962                   1
 p    1 1.00
                   0.8                   1

16 0
 s    3 1.00
             13.010701   0.033485484812989
             1.9622572    0.23472187088125
            0.44453796    0.81377028525955
 s    1 1.00
            0.12194962                   1
 p    1 1.00
                   0.8                   1

17 0
 s    5 1.00
          1712.8415853  -0.0054477995804909
          257.64812677  -0.040627174632423
          58.458245853   -0.18111962250584
          16.198367905   -0.46843975563173
          5.0052600809   -0.44616846289231
 s    1 1.00
         0.58731856571                   1
 s    1 1.00
         0.18764592253                   1
 p    3 1.00
          13.571470233  -0.058848116969522
          2.9257372874   -0.32024624762471
         0.79927750754   -0.75328226520436
 p    1 1.00
         0.21954348034                   1
 d    1 1.00
                     1                   1

18 0
 s    5 1.00
          1712.8415853  -0.0054477995804909
          257.64812677  -0.040627174632423
          58.458245853   -0.18111962250584
          16.198367905   -0.46843975563173
          5.0052600809   -0.44616846289231
 s    1 1.00
         0.58731856571                   1
 s    1 1.00
         0.18764592253                   1
 p    3 1.00
          13.571470233  -0.058848116969522
          2.9257372874   -0.32024624762471
         0.79927750754   -0.75328226520436
 p    1 1.00
         0.21954348034                   1
 d    1 1.00
                     1                   1

19 0
 s    5 1.00
          1712.8415853  -0.0054477995804909
          257.64812677  -0.040627174632423
          58.458245853   -0.18111962250584
          16.198367905   -0.46843975563173
          5.0052600809   -0.44616846289231
 s    1 1.00
         0.58731856571                   1
 s    1 1.00
         0.18764592253                   1
 p    3 1.00
          13.571470233  -0.058848116969522
          2.9257372874   -0.32024624762471
         0.79927750754   -0.75328226520436
 p    1 1.00
         0.21954348034                   1
 d    1 1.00
                     1                   1

20 0
 s    3 1.00
             13.010701   0.033485484812989
             1.9622572    0.23472187088125
            0.44453796    0.81377028525955
 s    1 1.00
            0.12194962                   1
 p    1 1.00
                   0.8                   1

21 0
 s    3 1.00
             13.010701   0.033485484812989
             1.9622572    0.23472187088125
            0.44453796    0.81377028525955
 s    1 1.00
            0.12194962                   1
 p    1 1.00
                   0.8                   1

22 0
 s    3 1.00
             13.010701   0.033485484812989
             1.9622572    0.23472187088125
            0.44453796    0.81377028525955
 s    1 1.00
            0.12194962                   1
 p    1 1.00
                   0.8                   1

23 0
 s    3 1.00
             13.010701   0.033485484812989
             1.9622572    0.23472187088125
            0.44453796    0.81377028525955
 s    1 1.00
            0.12194962                   1
 p    1 1.00
                   0.8                   1

24 0
 s    3 1.00
             13.010701   0.033485484812989
             1.9622572    0.23472187088125
            0.44453796    0.81377028525955
 s    1 1.00
            0.12194962                   1
 p    1 1.00
                   0.8                   1

25 0
 s    3 1.00
             13.010701   0.033485484812989
             1.9622572    0.23472187088125
            0.44453796    0.81377028525955
 s    1 1.00
            0.12194962                   1
 p    1 1.00
                   0.8                   1

26 0
 s    3 1.00
             13.010701   0.033485484812989
             1.9622572    0.23472187088125
            0.44453796    0.81377028525955
 s    1 1.00
            0.12194962                   1
 p    1 1.00
                   0.8                   1

27 0
 s    3 1.00
             13.010701   0.033485484812989
             1.9622572    0.23472187088125
            0.44453796    0.81377028525955
 s    1 1.00
            0.12194962                   1
 p    1 1.00
                   0.8                   1

28 0
 s    3 1.00
             13.010701   0.033485484812989
             1.9622572    0.23472187088125
            0.44453796    0.81377028525955
 s    1 1.00
            0.12194962                   1
 p    1 1.00
                   0.8                   1

29 0
 s    3 1.00
             13.010701   0.033485484812989
             1.9622572    0.23472187088125
            0.44453796    0.81377028525955
 s    1 1.00
            0.12194962                   1
 p    1 1.00
                   0.8                   1

30 0
 s    3 1.00
             13.010701   0.033485484812989
             1.9622572    0.23472187088125
            0.44453796    0.81377028525955
 s    1 1.00
            0.12194962                   1
 p    1 1.00
                   0.8                   1

31 0
 s    3 1.00
             13.010701   0.033485484812989
             1.9622572    0.23472187088125
            0.44453796    0.81377028525955
 s    1 1.00
            0.12194962                   1
 p    1 1.00
                   0.8                   1

32 0
 s    3 1.00
             13.010701   0.033485484812989
             1.9622572    0.23472187088125
            0.44453796    0.81377028525955
 s    1 1.00
            0.12194962                   1
 p    1 1.00
                   0.8                   1

[5d]
[7f]
[9g]

[MO]
 Sym= A
 Ene=               0
 Spin= Alpha
 Occup=    1.00000
   1     -0.06182002849251
   2    -0.00042269577603138
   3    0.00020486316255677
   4    -0.00026558285468033
   5    0.00072259775231202
   6    1.2052308026055e-05
   7    7.6898107956512e-07
   8    7.3194129987631e-11
   9    -8.6965495246777e-11
  10    -2.0455690597496e-06
  11    -1.7976509333382e-10
  12    5.0577370202926e-10
  13    -2.5253308208088e-05
  14    1.2902818694315e-09
  15    -1.7184294600352e-09
  16    0.00051117328540218
  17    3.1320470863164e-09
  18    1.799643740804e-08
  19    4.2002809931124e-06
  20    -6.1710536891499e-10
  21    -1.0525100367664e-10
  22    -7.2748729537797e-06
  23    -1.6779637898139e-09
  24    -9.9045084196895e-06
  25    3.3397531082233e-09
  26    1.2747209999308e-09
  27    1.7154690708505e-05
  28    6.5757249570238e-09
  29    -9.7964680360969e-05
  30    -1.0383105096211e-10
  31    -2.2214559514914e-08
  32    0.00016969441987729
  33    -1.3930706199912e-08
  34    -5.4542098807222e-05
  35    1.6760031624955e-07
  36    4.2982208133184e-08
  37    9.4584439540748e-05
  38    1.0160502104863e-08
  39    1.2913557923734e-06
  40    -1.0702795005979e-05
  41    -1.9287416838347e-07
  42    1.0013874371478e-06
  43    -1.7779000765886e-09
  44    1.3817839542865e-05
  45    -4.9773943020337e-08
  46      0.99586860719183
  47    0.0069434592886473
  48    -0.0026230407410177
  49    0.0022874746175247
  50    -0.0024950297136429
  51      0.00020264122267
  52    -3.7119794865733e-07
  53    -1.1690565199623e-09
  54    -1.0759173730891e-09
  55    5.9640433260441e-06
  56    3.1532395362865e-09
  57    -4.0101278697272e-09
  58    -2.4510009306921e-05
  59    -7.337197135598e-09
  60    2.4374240048537e-08
  61    0.00011681033668998
  62    9.3669582195707e-09
  63    -9.2187109150866e-08
  64    1.1051417484875e-05
  65    -2.6575847611183e-10
  66    1.6393710757297e-09
  67    -1.9139508807924e-05
  68    1.564444745881e-09
  69    -5.2385932558151e-05
  70    -2.3388022482215e-09
  71    -6.1496462325084e-09
  72    9.0731144916801e-05
  73    -8.5481527863624e-09
  74    0.00026502795574388
  75    5.1494867933562e-08
  76    2.1347627418919e-08
  77    -0.00045907908404968
  78    5.1679630175963e-08
  79    2.9155757588353e-05
  80    -8.0584896159666e-08
  81    9.0681183212101e-08
  82    -5.0430188237125e-05
  83    3.2562366396214e-09
  84    3.4824494145902e-07
  85    -6.4864098204016e-06
  86    1.4566801354999e-06
  87    2.7078722495191e-07
  88    1.3132304514332e-09
  89    8.3741212674131e-06
  90    3.7599252690705e-07
  91    -3.4536353101846e-06
  92    -5.5536146195809e-05
  93    0.00023865023131793
  94    -8.2763593835973e-06
  95    2.4984264039352e-06
  96    -3.0504194901376e-06
  97    0.00014311035981133
  98    1.1996735179071e-05
  99    -7.4575432973888e-05
 100    8.9984673029868e-06
 101    -1.5425679607285e-05
 102    3.4907488943777e-06
 103    -5.0923957731861e-06
 104    2.7565110104729e-06
 105    -3.4517941630246e-06
 106    -5.5499689261802e-05
 107    0.00023847790173779
 108    -8.265152922735e-06
 109    -3.9026957506085e-06
 110    -6.3858799078305e-07
 111    0.00014305146294273
 112    -7.0578825753271e-05
 113    2.702693068222e-05
 114    4.7812016750329e-06
 115    5.3329801660158e-06
 116    -6.2776289012943e-06
 117    -7.5126938160624e-06
 118    -1.4734342237053e-05
 119    -3.4533932913081e-06
 120    -5.5509832476169e-05
 121    0.00023847318983577
 122    -8.2651523389374e-06
 123    1.3981513144174e-06
 124    3.6964602784943e-06
 125    0.00014301834168606
 126    5.8676328771224e-05
 127    4.7620784855113e-05
 128    -4.1922220197248e-07
 129    1.0092189642846e-05
 130    2.7964050431201e-06
 131    -1.0516329260247e-05
 132    1.1992303552194e-05
 133    -2.5428401535996e-05
 134    4.3395133227227e-05
 135    -2.8629800296458e-06
 136    5.2385067621554e-06
 137    1.7561521121743e-06
 138    -2.5377023247236e-05
 139    4.3783594902022e-05
 140    -2.8005103449058e-06
 141    -1.1737906068977e-06
 142    -5.3726214820596e-06
 143    -2.5353855702322e-05
 144    4.3644199306633e-05
 145    -2.8114848229278e-06
 146    -4.0729800011858e-06
 147    3.6824770419637e-06
 148    8.6218829788221e-07
 149    1.1074349293471e-05
 150    -1.3903728998398e-05
 151    -2.6155817099875e-06
 152    -1.9524341055342e-06
 153    2.4155267910746e-06
 154    -3.120376918187e-06
 155    -1.2627149075378e-05
 156    3.5509934206431e-05
 157    -1.4809359028443e-06
 158    -1.933498239536e-06
 159    2.1558354898599e-07
 160    2.5129008748778e-06
 161    -1.9961080526782e-06
 162    -7.4258706017905e-06
 163    -3.5546032202089e-06
 164    1.6431228673696e-08
 165    -2.7250017375518e-06
 166    -2.069401883032e-07
 167    1.4874082299578e-05
 168    6.8391211363395e-06
 169    5.3655920895277e-06
 170    4.6458878331626e-06
 171    -7.153295765841e-07
 172    1.3968629721117e-06
 173    -4.6823961743523e-05
 174    -1.851201880658e-06
 175    3.3179687537553e-06
 176    1.8073647228104e-06
 177    8.6183568154414e-07
 178    1.1071132231225e-05
 179    -1.3906082099079e-05
 180    -2.6130355692871e-06
 181    3.069379358002e-06
 182    4.8252405174227e-07
 183    -3.0993366715495e-06
 184    3.7091729766109e-05
 185    -6.8301739616177e-06
 186    -1.2871886824462e-06
 187    2.6965005923197e-06
 188    -8.2906537649133e-08
 189    2.6257527111955e-06
 190    -6.7592052747064e-07
 191    8.6198916910102e-07
 192    1.1069135197001e-05
 193    -1.3860278636804e-05
 194    -2.6134611299673e-06
 195    -1.1154714091658e-06
 196    -2.8980379101563e-06
 197    -3.1187153288092e-06
 198    -2.4463048530447e-05
 199    -2.8708162861288e-05
 200    -1.609059615099e-06
 201    -7.634620603025e-07
 202    -1.3097883254418e-07
 203    2.4398905941601e-06
 204    2.6726855960639e-06
 205    1.4049957708717e-06
 206    -4.6961399258486e-05
 207    -1.8597611273958e-06
 208    -3.2267377444471e-06
 209    1.973115298323e-06
 210    1.487667004577e-05
 211     6.89472490524e-06
 212    5.3651120639501e-06
 213    -2.9389123466962e-06
 214    -3.670716640263e-06
 215    -6.9018894282566e-06
 216    -0.00013222089655552
 217    0.00057611117074474
 218    -1.1306845139244e-05
 219    1.7627763530259e-05
 220    -7.9547593994252e-06
 221    -5.4155333677437e-05
 222    0.00028024370045222
 223    -0.00014374822309485
 224    -9.7524663280622e-07
 225    4.8258281223191e-06
 226    -6.3193792225067e-06
 227    -1.235369197063e-05
 228    -5.2667066653769e-06
 229    -6.9017040628881e-06
 230    -0.00013221421103035
 231    0.00057606422314992
 232    -1.1307061436129e-05
 233    -1.570058960129e-05
 234    -1.1288668738097e-05
 235    -5.4142541365205e-05
 236    -0.00026457134692641
 237    -0.00017080808509223
 238    3.4065055432793e-06
 239    2.1456724533511e-06
 240    9.2409657737975e-06
 241    -9.8249671386347e-06
 242    6.8100589838631e-06
 243    -6.9008119237545e-06
 244    -0.00013220985864422
 245    0.00057612918061696
 246    -1.130339682612e-05
 247    -1.9235923863525e-06
 248    1.9240265484712e-05
 249    -5.4129066613974e-05
 250    -1.5646267221286e-05
 251    0.00031456965819485
 252    1.2885604538856e-05
 253    -6.971765028999e-06
 254    -2.9222433628114e-06
 255    -4.3526945387795e-06
 256    -1.5472533208782e-06
 257    -7.4366322683339e-06
 258    -3.5812466607591e-06
 259    1.7794178467406e-08
 260    1.1844081310132e-06
 261    2.4640095680527e-06
 262    1.4008457016044e-06
 263    -4.6855489644894e-05
 264    -1.8542830102235e-06
 265    -9.6463233455999e-08
 266    -3.7754812600913e-06
 267    -7.4285763907031e-06
 268    -3.6350868906744e-06
 269    2.1791182070769e-08
 270    1.5448139820684e-06
 271    -2.2601050240067e-06
 272    1.4876191730955e-05
 273    6.8209704236915e-06
 274    5.3663981661206e-06
 275    -1.7039459927869e-06
 276    4.3791305854056e-06
 277    1.2978737209973e-05
 278    4.3428413755629e-05
 279    1.0185453743655e-05
 280    -3.5726201279828e-06
 281    -1.7545146805326e-06
 282    -5.2640042490448e-05
 283    -4.5991203701328e-07
 284    -5.8391705190381e-06
 285    -1.7561411103097e-05
 286    -4.7234860074425e-06
 287    -5.8575481605901e-05
 288    -1.5752896409743e-05
 289    3.7862402254337e-06
 290    -6.5815452409554e-06
 291    1.5779011462149e-05
 292    1.2973883435234e-05
 293    4.3367224839581e-05
 294    1.018392257398e-05
 295    2.691389003449e-07
 296    3.9711311722957e-06
 297    -5.2638656100442e-05
 298    -4.5802951158322e-07
 299    -5.8384199171509e-06
 300    4.6924725863669e-06
 301    1.7570390912464e-05
 302    -5.856583932829e-05
 303    -1.5775198405393e-05
 304    3.7836888995794e-06
 305    1.6951002244407e-05
 306    -2.1911120086019e-06
 307    1.2985804745742e-05
 308    4.3378353444976e-05
 309    1.0181465659037e-05
 310    3.3093888635083e-06
 311    -2.2176694392786e-06
 312    -5.2643693055835e-05
 313    -4.4323817451941e-07
 314    -5.8458613703274e-06
 315    1.287260087532e-05
 316    -1.2848508875557e-05
 317    -5.8567457932943e-05
 318    -1.58512333684e-05
 319    3.7880180283466e-06
 320    -1.0379509364581e-05
 321    -1.3583605262629e-05
 Sym= A
 Ene=               1
 Spin= Alpha
 Occup=    1.00000
   1     -0.99586883976179
   2    -0.0069445016884102
   3    0.0026177980422161
   4    -0.0022720644412534
   5    0.0024242718572189
   6    -0.00020572813058154
   7    -4.6977692399136e-07
   8    2.233976110174e-09
   9    -6.6854766822731e-10
  10    6.2650591938893e-06
  11    -6.3878165312204e-09
  12    6.4248447346704e-09
  13    -2.1551808877576e-05
  14    1.6474323524608e-08
  15    -2.8259403931066e-08
  16    5.4001558486973e-05
  17    -2.0503992479457e-08
  18    8.8557735214597e-08
  19    -1.1660581543917e-05
  20    -2.6542438455915e-09
  21    -2.3670650412713e-09
  22    2.0195822808798e-05
  23    -1.3223544586611e-09
  24    5.4025816642437e-05
  25    3.9543915112852e-09
  26    2.0732074063762e-09
  27    -9.3572027361105e-05
  28    -6.4482140627065e-09
  29    -0.0002548661491489
  30    1.5950101183629e-08
  31    -1.2664394821774e-08
  32    0.00044148275279266
  33    6.2221204891474e-08
  34    -2.2621770907307e-05
  35    -8.4898267749109e-08
  36    -2.9654332085837e-09
  37    3.9011350726692e-05
  38    -1.0435131765563e-07
  39    -5.1180133557017e-07
  40    -5.2019815691328e-06
  41    -1.4438969410177e-06
  42    -3.9775521225646e-07
  43    6.4607704423894e-10
  44    6.7172144174433e-06
  45    -3.7223892387956e-07
  46    -0.061823780830239
  47    -0.00043944610806251
  48    0.00012047983156758
  49    -1.7466981184546e-05
  50    -0.0004172073791052
  51    -3.7409194080351e-05
  52    8.211428790412e-07
  53    2.2969861545544e-10
  54    -9.5206843916929e-11
  55    -2.8045020937579e-06
  56    -8.258059282683e-10
  57    1.0649790825695e-09
  58    -2.2394400940884e-05
  59    -1.1546243911051e-09
  60    -2.8202310417964e-09
  61    0.0005005682011942
  62    3.3414184992018e-08
  63    -7.3843462040623e-09
  64    -5.6104619041456e-06
  65    3.9234904086911e-10
  66    5.8625438419625e-10
  67    9.716633593296e-06
  68    -1.3420554615489e-09
  69    1.6511173117995e-05
  70    -2.1487852602891e-09
  71    -2.6158721122684e-09
  72    -2.8595648915913e-05
  73    7.8347115918457e-09
  74    6.568478767894e-05
  75    3.4175536801287e-08
  76    6.7406010056611e-09
  77    -0.00011379159013375
  78    -6.0013308099821e-08
  79    5.1321342006658e-05
  80    1.0716571572547e-07
  81    -1.3701604572804e-08
  82    -8.9038562385871e-05
  83    1.5605874527206e-07
  84    -1.3445896777945e-06
  85    -9.9778357617627e-06
  86    1.2702817963682e-08
  87    -1.0429300534513e-06
  88    -8.2923655238415e-11
  89    1.2880535518993e-05
  90    4.0858988539122e-09
  91    3.9110153613626e-06
  92    6.2886834622394e-05
  93    -0.00027022001308408
  94    -7.3088325885147e-06
  95    -2.8309220605799e-06
  96    3.4533373557582e-06
  97    0.00012638214484323
  98    -1.3574613978671e-05
  99    8.4439214815629e-05
 100    -1.0188438514154e-05
 101    -1.3622817825809e-05
 102    -3.9516488305643e-06
 103    5.7668551582393e-06
 104    2.434008815386e-06
 105    3.9097568671959e-06
 106    6.286083502848e-05
 107    -0.0002701164375773
 108    -7.2999343514286e-06
 109    4.4157704000303e-06
 110    7.1909814377721e-07
 111    0.0001263104788587
 112    7.9949222940937e-05
 113    -3.0556835208089e-05
 114    -5.4240792267612e-06
 115    4.7140534554535e-06
 116    7.1029719679924e-06
 117    8.5065079116833e-06
 118    -1.3012895131813e-05
 119    3.9093072882035e-06
 120    6.284516578702e-05
 121    -0.00026999765852848
 122    -7.2981144259244e-06
 123    -1.5840036469339e-06
 124    -4.1890075341093e-06
 125    0.00012631274294214
 126    -6.6467103454439e-05
 127    -5.3896498521669e-05
 128    4.7778261276163e-07
 129    8.9135032131565e-06
 130    -3.1750048096723e-06
 131    1.1906436745242e-05
 132    1.0586655804381e-05
 133    2.8787454925949e-05
 134    -4.9136846607037e-05
 135    -2.5292351469854e-06
 136    -5.9315064605406e-06
 137    -1.9888687094705e-06
 138    2.8734903497235e-05
 139    -4.9386266751685e-05