[Molden Format]
made by pyscf v[2.10.0]
[Atoms] (AU)
Cr   1   24    -2.49590634431095     0.00008630757156    -0.00013410441443
Cr   2   24     2.49589970192362     0.00009747774268    -0.00013526470627
O   3   8    -0.00000198232270    -0.31337777322590     2.74893896974697
O   4   8    -0.00000925587856     2.53747308517977    -1.10306388853213
O   5   8     0.00000127367541    -2.22388444686427    -1.64597084497593
H   6   1     0.00003382987708     0.94728156401237     4.08168235220268
H   7   1     0.00106228308476     3.05888335248948    -2.86196050537966
H   8   1    -0.00083345803806    -4.00770344080561    -1.21723470457117
N   9   7    -5.00738946674064    -2.73196530796667     1.34438880269081
H   10   1    -4.13274932833534    -4.12333890041585     2.35157299543673
H   11   1    -5.77114516078753    -3.48503132966322    -0.25714316715081
H   12   1    -6.36321062493573    -1.89939443207042     2.43246534891805
N   13   7    -5.00740112446111     2.53037270004892     1.69376258369429
N   14   7    -5.00739700863761     0.20177045004333    -3.03824186080277
H   15   1    -6.36321349731944    -1.15682126396888    -2.86125020268286
H   16   1    -5.77115528405038     1.51993523984463     3.14670152576116
N   17   7     5.00739756610681    -2.73194291471209     1.34438647643795
N   18   7     5.00738584791511     2.53039511786994     1.69376025555171
N   19   7     5.00738992594409     0.20179285652598    -3.03824417571727
H   20   1    -4.13276768891437     4.09830942120420     2.39513740358636
H   21   1    -6.36322198218974     3.05638398559932     0.42869429619919
H   22   1    -4.13276038890235     0.02521252186353    -4.74680088099966
H   23   1    -5.77115810163203     1.96526835725211    -2.88964856090746
H   24   1     4.13276306664427    -4.12331998236762     2.35157076555991
H   25   1     5.77115479083186    -3.48500570119751    -0.25714628519891
H   26   1     6.36321485603252    -1.89936557973195     2.43246290172272
H   27   1     4.13274464937346     4.09832743029417     2.39513524929858
H   28   1     5.77114410065117     1.51996078894183     3.14669922407474
H   29   1     6.36320310571548     3.05641270376723     0.42869072839627
H   30   1     4.13275236512523     0.02523107897407    -4.74680231719152
H   31   1     5.77114213911546     1.96529463767332    -2.88965122353157
H   32   1     6.36321194396456    -1.15679341318525    -2.86125308262547
[GTO]
1 0
 s    8 1.00
          254477.80704  0.00024290477637401
          38131.797054  0.0018843523608945
          8675.2930607  0.0098009584389183
          2455.0099848    0.03982500865256
          799.16217787    0.12940543734993
          286.90021489      0.306290018085
          111.25413232    0.43462834975685
          43.864152636    0.22469562869153
 s    4 1.00
          279.32669173  -0.024363357905718
          86.274732376   -0.11511495393603
          13.555756113    0.55092266280841
          5.6978112751     0.5361135469137
 s    2 1.00
          8.5636582615   -0.37123017689407
          1.3988296768      1.168116945815
 s    1 1.00
         0.57288171116                   1
 s    1 1.00
        0.090096171317                   1
 s    1 1.00
        0.034125885135                   1
 p    6 1.00
          1306.4398864  0.0028292800654831
          309.25311441   0.022776629200026
          98.996273963    0.10564561899224
          36.756916451    0.29949944921292
          14.566657077    0.47706245356687
          5.8739937432    0.27654234376953
 p    3 1.00
          22.890999695  -0.019412106076979
          3.0855001822    0.38618875824718
          1.2132329118    0.67623908895117
 p    1 1.00
         0.44931680699                   1
 p    1 1.00
              0.120675                   1
 d    4 1.00
          43.720074476   0.022093259256368
          12.391242652    0.12801438774984
          4.2639442006    0.38652910276341
           1.552522179    0.64103301437156
 d    1 1.00
         0.53761929485                   1
 d    1 1.00
         0.16493173074                   1
 d    1 1.00
                 0.051                   1
 f    1 1.00
                 1.147                   1

2 0
 s    8 1.00
          254477.80704  0.00024290477637401
          38131.797054  0.0018843523608945
          8675.2930607  0.0098009584389183
          2455.0099848    0.03982500865256
          799.16217787    0.12940543734993
          286.90021489      0.306290018085
          111.25413232    0.43462834975685
          43.864152636    0.22469562869153
 s    4 1.00
          279.32669173  -0.024363357905718
          86.274732376   -0.11511495393603
          13.555756113    0.55092266280841
          5.6978112751     0.5361135469137
 s    2 1.00
          8.5636582615   -0.37123017689407
          1.3988296768      1.168116945815
 s    1 1.00
         0.57288171116                   1
 s    1 1.00
        0.090096171317                   1
 s    1 1.00
        0.034125885135                   1
 p    6 1.00
          1306.4398864  0.0028292800654831
          309.25311441   0.022776629200026
          98.996273963    0.10564561899224
          36.756916451    0.29949944921292
          14.566657077    0.47706245356687
          5.8739937432    0.27654234376953
 p    3 1.00
          22.890999695  -0.019412106076979
          3.0855001822    0.38618875824718
          1.2132329118    0.67623908895117
 p    1 1.00
         0.44931680699                   1
 p    1 1.00
              0.120675                   1
 d    4 1.00
          43.720074476   0.022093259256368
          12.391242652    0.12801438774984
          4.2639442006    0.38652910276341
           1.552522179    0.64103301437156
 d    1 1.00
         0.53761929485                   1
 d    1 1.00
         0.16493173074                   1
 d    1 1.00
                 0.051                   1
 f    1 1.00
                 1.147                   1

3 0
 s    5 1.00
          2266.1767785  -0.0053893503921743
          340.87010191   -0.04023472138896
          77.363135167   -0.18008184205526
           21.47964494   -0.46828857657651
          6.6589433124   -0.44692617160187
 s    1 1.00
         0.80975975668                   1
 s    1 1.00
         0.25530772234                   1
 p    3 1.00
          17.721504317   0.062630248763161
           3.863550544    0.33331138482352
          1.0480920883    0.74148638308122
 p    1 1.00
         0.27641544411                   1
 d    1 1.00
                   1.2                   1

4 0
 s    5 1.00
          2266.1767785  -0.0053893503921743
          340.87010191   -0.04023472138896
          77.363135167   -0.18008184205526
           21.47964494   -0.46828857657651
          6.6589433124   -0.44692617160187
 s    1 1.00
         0.80975975668                   1
 s    1 1.00
         0.25530772234                   1
 p    3 1.00
          17.721504317   0.062630248763161
           3.863550544    0.33331138482352
          1.0480920883    0.74148638308122
 p    1 1.00
         0.27641544411                   1
 d    1 1.00
                   1.2                   1

5 0
 s    5 1.00
          2266.1767785  -0.0053893503921743
          340.87010191   -0.04023472138896
          77.363135167   -0.18008184205526
           21.47964494   -0.46828857657651
          6.6589433124   -0.44692617160187
 s    1 1.00
         0.80975975668                   1
 s    1 1.00
         0.25530772234                   1
 p    3 1.00
          17.721504317   0.062630248763161
           3.863550544    0.33331138482352
          1.0480920883    0.74148638308122
 p    1 1.00
         0.27641544411                   1
 d    1 1.00
                   1.2                   1

6 0
 s    3 1.00
             13.010701   0.033485484812989
             1.9622572    0.23472187088125
            0.44453796    0.81377028525955
 s    1 1.00
            0.12194962                   1
 p    1 1.00
                   0.8                   1

7 0
 s    3 1.00
             13.010701   0.033485484812989
             1.9622572    0.23472187088125
            0.44453796    0.81377028525955
 s    1 1.00
            0.12194962                   1
 p    1 1.00
                   0.8                   1

8 0
 s    3 1.00
             13.010701   0.033485484812989
             1.9622572    0.23472187088125
            0.44453796    0.81377028525955
 s    1 1.00
            0.12194962                   1
 p    1 1.00
                   0.8                   1

9 0
 s    5 1.00
          1712.8415853  -0.0054477995804909
          257.64812677  -0.040627174632423
          58.458245853   -0.18111962250584
          16.198367905   -0.46843975563173
          5.0052600809   -0.44616846289231
 s    1 1.00
         0.58731856571                   1
 s    1 1.00
         0.18764592253                   1
 p    3 1.00
          13.571470233  -0.058848116969522
          2.9257372874   -0.32024624762471
         0.79927750754   -0.75328226520436
 p    1 1.00
         0.21954348034                   1
 d    1 1.00
                     1                   1

10 0
 s    3 1.00
             13.010701   0.033485484812989
             1.9622572    0.23472187088125
            0.44453796    0.81377028525955
 s    1 1.00
            0.12194962                   1
 p    1 1.00
                   0.8                   1

11 0
 s    3 1.00
             13.010701   0.033485484812989
             1.9622572    0.23472187088125
            0.44453796    0.81377028525955
 s    1 1.00
            0.12194962                   1
 p    1 1.00
                   0.8                   1

12 0
 s    3 1.00
             13.010701   0.033485484812989
             1.9622572    0.23472187088125
            0.44453796    0.81377028525955
 s    1 1.00
            0.12194962                   1
 p    1 1.00
                   0.8                   1

13 0
 s    5 1.00
          1712.8415853  -0.0054477995804909
          257.64812677  -0.040627174632423
          58.458245853   -0.18111962250584
          16.198367905   -0.46843975563173
          5.0052600809   -0.44616846289231
 s    1 1.00
         0.58731856571                   1
 s    1 1.00
         0.18764592253                   1
 p    3 1.00
          13.571470233  -0.058848116969522
          2.9257372874   -0.32024624762471
         0.79927750754   -0.75328226520436
 p    1 1.00
         0.21954348034                   1
 d    1 1.00
                     1                   1

14 0
 s    5 1.00
          1712.8415853  -0.0054477995804909
          257.64812677  -0.040627174632423
          58.458245853   -0.18111962250584
          16.198367905   -0.46843975563173
          5.0052600809   -0.44616846289231
 s    1 1.00
         0.58731856571                   1
 s    1 1.00
         0.18764592253                   1
 p    3 1.00
          13.571470233  -0.058848116969522
          2.9257372874   -0.32024624762471
         0.79927750754   -0.75328226520436
 p    1 1.00
         0.21954348034                   1
 d    1 1.00
                     1                   1

15 0
 s    3 1.00
             13.010701   0.033485484812989
             1.9622572    0.23472187088125
            0.44453796    0.81377028525955
 s    1 1.00
            0.12194962                   1
 p    1 1.00
                   0.8                   1

16 0
 s    3 1.00
             13.010701   0.033485484812989
             1.9622572    0.23472187088125
            0.44453796    0.81377028525955
 s    1 1.00
            0.12194962                   1
 p    1 1.00
                   0.8                   1

17 0
 s    5 1.00
          1712.8415853  -0.0054477995804909
          257.64812677  -0.040627174632423
          58.458245853   -0.18111962250584
          16.198367905   -0.46843975563173
          5.0052600809   -0.44616846289231
 s    1 1.00
         0.58731856571                   1
 s    1 1.00
         0.18764592253                   1
 p    3 1.00
          13.571470233  -0.058848116969522
          2.9257372874   -0.32024624762471
         0.79927750754   -0.75328226520436
 p    1 1.00
         0.21954348034                   1
 d    1 1.00
                     1                   1

18 0
 s    5 1.00
          1712.8415853  -0.0054477995804909
          257.64812677  -0.040627174632423
          58.458245853   -0.18111962250584
          16.198367905   -0.46843975563173
          5.0052600809   -0.44616846289231
 s    1 1.00
         0.58731856571                   1
 s    1 1.00
         0.18764592253                   1
 p    3 1.00
          13.571470233  -0.058848116969522
          2.9257372874   -0.32024624762471
         0.79927750754   -0.75328226520436
 p    1 1.00
         0.21954348034                   1
 d    1 1.00
                     1                   1

19 0
 s    5 1.00
          1712.8415853  -0.0054477995804909
          257.64812677  -0.040627174632423
          58.458245853   -0.18111962250584
          16.198367905   -0.46843975563173
          5.0052600809   -0.44616846289231
 s    1 1.00
         0.58731856571                   1
 s    1 1.00
         0.18764592253                   1
 p    3 1.00
          13.571470233  -0.058848116969522
          2.9257372874   -0.32024624762471
         0.79927750754   -0.75328226520436
 p    1 1.00
         0.21954348034                   1
 d    1 1.00
                     1                   1

20 0
 s    3 1.00
             13.010701   0.033485484812989
             1.9622572    0.23472187088125
            0.44453796    0.81377028525955
 s    1 1.00
            0.12194962                   1
 p    1 1.00
                   0.8                   1

21 0
 s    3 1.00
             13.010701   0.033485484812989
             1.9622572    0.23472187088125
            0.44453796    0.81377028525955
 s    1 1.00
            0.12194962                   1
 p    1 1.00
                   0.8                   1

22 0
 s    3 1.00
             13.010701   0.033485484812989
             1.9622572    0.23472187088125
            0.44453796    0.81377028525955
 s    1 1.00
            0.12194962                   1
 p    1 1.00
                   0.8                   1

23 0
 s    3 1.00
             13.010701   0.033485484812989
             1.9622572    0.23472187088125
            0.44453796    0.81377028525955
 s    1 1.00
            0.12194962                   1
 p    1 1.00
                   0.8                   1

24 0
 s    3 1.00
             13.010701   0.033485484812989
             1.9622572    0.23472187088125
            0.44453796    0.81377028525955
 s    1 1.00
            0.12194962                   1
 p    1 1.00
                   0.8                   1

25 0
 s    3 1.00
             13.010701   0.033485484812989
             1.9622572    0.23472187088125
            0.44453796    0.81377028525955
 s    1 1.00
            0.12194962                   1
 p    1 1.00
                   0.8                   1

26 0
 s    3 1.00
             13.010701   0.033485484812989
             1.9622572    0.23472187088125
            0.44453796    0.81377028525955
 s    1 1.00
            0.12194962                   1
 p    1 1.00
                   0.8                   1

27 0
 s    3 1.00
             13.010701   0.033485484812989
             1.9622572    0.23472187088125
            0.44453796    0.81377028525955
 s    1 1.00
            0.12194962                   1
 p    1 1.00
                   0.8                   1

28 0
 s    3 1.00
             13.010701   0.033485484812989
             1.9622572    0.23472187088125
            0.44453796    0.81377028525955
 s    1 1.00
            0.12194962                   1
 p    1 1.00
                   0.8                   1

29 0
 s    3 1.00
             13.010701   0.033485484812989
             1.9622572    0.23472187088125
            0.44453796    0.81377028525955
 s    1 1.00
            0.12194962                   1
 p    1 1.00
                   0.8                   1

30 0
 s    3 1.00
             13.010701   0.033485484812989
             1.9622572    0.23472187088125
            0.44453796    0.81377028525955
 s    1 1.00
            0.12194962                   1
 p    1 1.00
                   0.8                   1

31 0
 s    3 1.00
             13.010701   0.033485484812989
             1.9622572    0.23472187088125
            0.44453796    0.81377028525955
 s    1 1.00
            0.12194962                   1
 p    1 1.00
                   0.8                   1

32 0
 s    3 1.00
             13.010701   0.033485484812989
             1.9622572    0.23472187088125
            0.44453796    0.81377028525955
 s    1 1.00
            0.12194962                   1
 p    1 1.00
                   0.8                   1

[5d]
[7f]
[9g]

[MO]
 Sym= A
 Ene=               0
 Spin= Alpha
 Occup=    1.00000
   1      0.77461226572563
   2    0.0053958124593497
   3    -0.0020647520373295
   4    0.0018515037676928
   5    -0.0022729556010587
   6    0.00014321175888551
   7    -1.5626456285584e-07
   8    -1.6961719124688e-09
   9    6.4247850429937e-10
  10    -3.2164575864318e-06
  11    4.7627403853123e-09
  12    -5.0224800140432e-09
  13    3.2961037829176e-05
  14    -1.3011456893861e-08
  15    2.1933819100119e-08
  16    -0.00038588770208603
  17    1.321750829964e-08
  18    -7.7248755980961e-08
  19    5.4623719584075e-06
  20    1.2385884374395e-09
  21    2.5443626578993e-10
  22    -9.4594474225356e-06
  23    2.9550757973925e-10
  24    -3.3199667648096e-05
  25    -4.3422262151285e-09
  26    -2.1082226353609e-09
  27    5.7501089484769e-05
  28    1.5242788307379e-09
  29    0.00025380510945834
  30    -1.285007051542e-08
  31    2.4158913832018e-08
  32    -0.00043964377619563
  33    -3.8141896971523e-08
  34    5.3582224508568e-05
  35    -5.0786122435135e-08
  36    -2.6786587069284e-08
  37    -9.2759084678546e-05
  38    7.0030247237821e-08
  39    -4.9799098120768e-07
  40    1.1075599862087e-05
  41    1.1926161846915e-06
  42    -3.8550639417591e-07
  43    7.6451807309674e-10
  44    -1.4300056592611e-05
  45    3.0754043519931e-07
  46     -0.62892665193777
  47    -0.0043787755340803
  48    0.0016876037609524
  49    -0.0015361608960582
  50     0.001996510652802
  51    -0.00010970908577442
  52    -3.3775454750799e-07
  53    5.3725250770718e-10
  54    7.0282394472635e-10
  55    -1.9685418406944e-06
  56    -1.5108778984654e-09
  57    1.9200842585603e-09
  58    3.3076606567209e-05
  59    5.802989501364e-09
  60    -1.4395175308128e-08
  61    -0.00044739458417811
  62    -3.0831497881277e-08
  63    6.7821729080276e-08
  64    -3.0060088949414e-06
  65    -8.4896252773824e-11
  66    -1.5638249606804e-09
  67    5.2058620283873e-06
  68    -7.9803228784741e-11
  69    2.3526433396615e-05
  70    3.1808856115845e-09
  71    6.090823422918e-09
  72    -4.0748189262636e-05
  73    2.812865227298e-11
  74    -0.00022772982350491
  75    -6.0184133965975e-08
  76    -1.9484058151329e-08
  77    0.00039448119518157
  78    8.8717789615125e-09
  79    -5.7508217911541e-05
  80    -2.4314918318353e-08
  81    -5.131309811003e-08
  82    9.9668810756986e-05
  83    -1.171202408621e-07
  84    7.5343772941373e-07
  85    1.1734067657409e-05
  86    -9.9535010384696e-07
  87    5.8396827777006e-07
  88    -8.2689575974177e-10
  89    -1.5148164966165e-05
  90    -2.5748656918949e-07
  91    -5.3905314271544e-07
  92    -8.662169313379e-06
  93    3.7209239366036e-05
  94    1.0967370862372e-05
  95    3.9124528954443e-07
  96    -4.7492724319416e-07
  97    -0.0001899154945543
  98    1.8648927572961e-06
  99    -1.1628646360502e-05
 100    1.4018118864715e-06
 101    2.0469452028149e-05
 102    5.4362655656842e-07
 103    -7.9426877000681e-07
 104    -3.6576391682261e-06
 105    -5.3936253241768e-07
 106    -8.6676421078094e-06
 107    3.7249544636036e-05
 108    1.0953234877925e-05
 109    -6.0597832646322e-07
 110    -9.6910492983025e-08
 111    -0.00018982290808752
 112    -1.1031573419135e-05
 113    4.1811751605682e-06
 114    7.5303518599875e-07
 115    -7.079862141374e-06
 116    -9.7450296167938e-07
 117    -1.1705417273285e-06
 118    1.9552536340621e-05
 119    -5.3796473377309e-07
 120    -8.6493374591514e-06
 121    3.7164801496747e-05
 122    1.0951862080863e-05
 123    2.1828027582224e-07
 124    5.789416851022e-07
 125    -0.00018980190468772
 126    9.1711109201496e-06
 127    7.4090648809689e-06
 128    -6.7778624294182e-08
 129    -1.3392745215109e-05
 130    4.4188380658224e-07
 131    -1.6380991517532e-06
 132    -1.5910454011408e-05
 133    -3.9617990560512e-06
 134    6.7651919117471e-06
 135    3.7988100367707e-06
 136    8.1675800641623e-07
 137    2.7403153145939e-07
 138    -3.9578406873643e-06
 139    6.6858436265722e-06
 140    3.7352808634382e-06
 141    -1.5315451210352e-07
 142    -8.3833207384857e-07
 143    -3.9608337524027e-06
 144    6.9335010743352e-06
 145    3.7141690678977e-06
 146    -6.2252451865093e-07
 147    5.942110922803e-07
 148    -5.6218756408544e-06
 149    -0.00010451777673606
 150    0.00043530718304631
 151    9.9137297316537e-06
 152    1.4213243679343e-05
 153    -7.3124444761291e-06
 154    4.1975303565683e-05
 155    0.00021517361484005
 156    -0.0001273679661915
 157    1.4404058018871e-07
 158    -2.4455640086732e-06
 159    -4.8133337042285e-06
 160    -1.0633968166842e-05
 161    5.0733090488635e-06
 162    1.3981004339058e-05
 163    3.4260919450531e-05
 164    -7.5599293280259e-06
 165    -1.0553172920197e-06
 166    -1.1802330466158e-06
 167    -4.7743161001275e-05
 168    -4.3581802465944e-06
 169    1.1889678023881e-06
 170    -1.5742530892319e-05
 171    -3.0839885674947e-06
 172    -4.4251461982968e-05
 173    1.5686749379166e-05
 174    -1.7257929730163e-06
 175    -6.8213494789434e-06
 176    1.0642478403615e-05
 177    -5.6215564643241e-06
 178    -0.00010450789842622
 179    0.00043523862451176
 180    9.9119092741151e-06
 181    -1.3438084630054e-05
 182    -8.6522111843782e-06
 183    4.1957020334101e-05
 184    -0.00021788798919162
 185    -0.00012263167535555
 186    3.2797961682565e-06
 187    -3.1702632253086e-06
 188    6.901601674241e-06
 189    -8.825042239817e-06
 190    -4.6531181212263e-06
 191    -5.6210996793557e-06
 192    -0.00010450448780202
 193    0.00043525927927417
 194    9.9103426027089e-06
 195    -7.7463186812281e-07
 196    1.5961650399243e-05
 197    4.1957672200502e-05
 198    2.7121635133887e-06
 199    0.00025002402899877
 200    1.0499856660427e-05
 201    5.6145363694191e-06
 202    -2.0904404076723e-06
 203    -4.6563315291631e-06
 204    -4.170823348217e-07
 205    -4.425502565085e-05
 206    1.5738633435049e-05
 207    -1.7199367970695e-06
 208    -5.805867306942e-06
 209    -1.122624008334e-05
 210    -4.774524922578e-05
 211    -4.3745913176013e-06
 212    1.1873171952993e-06
 213    5.1989747432068e-06
 214    1.5176950723319e-05
 215    4.6795974729502e-06
 216    8.5616794078231e-05
 217    -0.00034756072191562
 218     8.55740001304e-06
 219    -1.1767789436888e-05
 220    6.4467026676273e-06
 221    3.4022623217642e-05
 222    -0.0001734211189698
 223    0.00011048209844538
 224    -5.2716456731082e-07
 225    -1.3911574907396e-06
 226    3.8628836933118e-06
 227    9.0995883058345e-06
 228    4.5622021140548e-06
 229    4.6791842485972e-06
 230    8.5613817736527e-05
 231    -0.00034757534305189
 232    8.5560385918193e-06
 233    1.1467104222324e-05
 234    6.9671369213784e-06
 235    3.3995556424137e-05
 236    0.00018238717153672
 237    9.494130256106e-05
 238    -2.949401820264e-06
 239    -3.2546929390109e-06
 240    -5.4752437948896e-06
 241    7.7024272012119e-06
 242    -3.4856152816801e-06
 243    4.6790188935859e-06
 244    8.561381639342e-05
 245    -0.00034760077586233
 246    8.5540759442429e-06
 247    2.991428069431e-07
 248    -1.341353374942e-05
 249    3.4005108361434e-05
 250    -8.9862478283296e-06
 251    -0.00020546031083056
 252    -8.7411982720804e-06
 253    4.6478210152706e-06
 254    1.6140683337757e-06
 255    4.3595208609063e-06
 256    -1.0768406448379e-06
 257    1.398239008708e-05
 258    3.4288057031283e-05
 259    -7.5626700567796e-06
 260    -4.9499821944909e-07
 261    1.5001968928743e-06
 262    -4.4249064924181e-05
 263    1.5769120468999e-05
 264    -1.7170070552549e-06
 265    1.2625577332453e-05
 266    5.8667781486964e-07
 267    1.3982219339669e-05
 268    3.4281939113458e-05
 269    -7.5612603864165e-06
 270    1.5489810201105e-06
 271    -3.2114217880071e-07
 272    -4.7740489154778e-05
 273    -4.3249200867192e-06
 274    1.1922608336537e-06
 275    1.0540286112578e-05
 276    -1.2090648876862e-05
 277    -1.3112587327935e-05
 278    -2.8085451532727e-05
 279    -5.9766890722782e-06
 280    7.0085547964438e-08
 281    8.731342519135e-07
 282    4.1849463146299e-05
 283    5.312374296812e-06
 284    -5.5921751803225e-07
 285    1.3724688227257e-05
 286    2.2337294624087e-06
 287    3.5339748416724e-05
 288    -2.5541931593023e-05
 289    -8.4146346303884e-07
 290    6.3149552933302e-06
 291    -7.8966254060487e-06
 292    -1.31190109576e-05
 293    -2.8035619568048e-05
 294    -5.9742810808808e-06
 295    7.2084106130148e-07
 296    -4.9902943248128e-07
 297    4.1852050522753e-05
 298    5.3778682484769e-06
 299    -5.5861728859421e-07
 300    -4.928309913377e-06
 301    -1.300874255195e-05
 302    3.5332766046434e-05
 303    -2.5455690446718e-05
 304    -8.4296921341908e-07
 305    -9.9957428022796e-06
 306    -1.5154173718077e-06
 307    -1.312214583738e-05
 308    -2.809903961965e-05
 309    -5.9766956112371e-06
 310    -7.9276342518281e-07
 311    -3.7756793619729e-07
 312    4.1857825863067e-05
 313    5.3532954000757e-06
 314    -5.5690319908974e-07
 315    -8.802212564472e-06
 316    1.0769918454554e-05
 317    3.5338841296324e-05
 318    -2.5527147967241e-05
 319    -8.3890477278362e-07
 320    3.6853425990082e-06
 321    9.4169050455168e-06
 Sym= A
 Ene=               1
 Spin= Alpha
 Occup=    1.00000
   1     -0.62892956877106
   2    -0.0043918046586476
   3    0.0016219935826217
   4    -0.0013432035969393
   5    0.0011100241336833
   6    -0.00014818261849598
   7    -8.9987745315168e-07
   8    1.4623711276564e-09
   9    -4.6170161746173e-10
  10    5.7433261714791e-06
  11    -4.1503762303045e-09
  12    3.9338984443393e-09
  13    3.9806198985178e-06
  14    1.0220801078077e-08
  15    -1.7850982645115e-08
  16    -0.00033952486423268
  17    -1.637009848617e-08
  18    4.667992516943e-08
  19    -1.1391484088774e-05
  20    -4.0682517302913e-10
  21    -2.4838165698315e-10
  22    1.9728915962497e-05
  23    1.829713132432e-09
  24    4.3649503395237e-05
  25    -4.5547784136246e-10
  26    2.4157165839137e-10
  27    -7.560037820651e-05
  28    -1.0203173226861e-08
  29    -0.0001006011608625
  30    1.1847426206249e-08
  31    7.9463145950222e-09
  32    0.00017426368900847
  33    5.3825032168477e-08
  34    2.4817578654045e-05
  35    -1.8100915272334e-07
  36    -3.3748182379192e-08
  37    -4.318548120714e-05
  38    -7.8259905237356e-08
  39    -1.2963029969679e-06
  40    4.3513330938667e-06
  41    -8.3640218266659e-07
  42    -1.005829487893e-06
  43    1.7165783633361e-09
  44    -5.616954140598e-06
  45    -2.1562513263266e-07
  46       -0.774614633912
  47    -0.0054063908890459
  48    0.0020114829095454
  49    -0.0016948398842555
  50    0.0015531903979982
  51    -0.00017442776604879
  52    8.4851583325081e-07
  53    9.0070684260406e-10
  54    6.0415504366958e-10
  55    -6.2813785106983e-06
  56    -2.823639719285e-09
  57    3.6754577730053e-09
  58    2.8737330512866e-06
  59    4.5756143614078e-09
  60    -1.9829687747541e-08
  61    0.00025302994903584
  62    1.5702364026881e-08
  63    6.285361513154e-08
  64    -1.2270583014396e-05
  65    4.9138688703472e-10
  66    -8.076916880435e-10
  67    2.125108066692e-05
  68    -2.047973916342e-09
  69     4.95381918157e-05
  70    2.6486517571295e-10
  71    2.7644671059095e-09
  72    -8.5798068526756e-05
  73    1.1554265717874e-08
  74    -0.00015058958131961
  75    -1.4577823491833e-08
  76    -1.10846762401e-08
  77    0.00026084111564935
  78    -7.8395473224414e-08
  79    1.3309030024927e-05
  80    1.3190077826389e-07
  81    -7.6006760238569e-08
  82    -2.3202543213226e-05
  83    1.0336666701919e-07
  84    -1.1663501255321e-06
  85    -1.9837483945135e-06
  86    -1.0636024263501e-06
  87    -9.0518392775135e-07
  88    -1.0169865615829e-09
  89    2.5603172645427e-06
  90    -2.7399732624964e-07
  91    5.1917167892579e-06
  92    8.3456237311501e-05
  93    -0.00035860849857625
  94    1.1383490699154e-06
  95    -3.75764114153e-06
  96    4.5812685117872e-06
  97    -1.9711655387465e-05
  98    -1.8029523776361e-05
  99    0.00011208311196313
 100    -1.3512835885182e-05
 101    2.124379495981e-06
 102    -5.2448928872829e-06
 103    7.6495800570013e-06
 104    -3.798527936098e-07
 105    5.1895544568443e-06
 106    8.3411846301341e-05
 107    -0.00035841127020784
 108    1.1361914614725e-06
 109    5.8612779716105e-06
 110    9.5964186464891e-07
 111    -1.9716791228583e-05
 112    0.00010610253382721
 113    -4.0585697268211e-05
 114    -7.1906790529312e-06
 115    -7.3148460124969e-07
 116    9.4246828602344e-06
 117    1.1281483970999e-05
 118    2.0287703636159e-06
 119    5.1904541959043e-06
 120    8.3408807587552e-05
 121    -0.00035832691906857
 122    1.1373501517706e-06
 123    -2.0985962450484e-06
 124    -5.5574432968758e-06
 125    -1.9691161742145e-05
 126    -8.8205171288011e-05
 127    -7.1560166350049e-05
 128    6.3309342311405e-07
 129    -1.3893011907929e-06
 130    -4.2028557440335e-06
 131    1.5794296000339e-05
 132    -1.6542744472379e-06
 133    3.8212535968353e-05
 134    -6.5194135221899e-05
 135    3.9362263391093e-07
 136    -7.8712017183388e-06
 137    -2.6386419102581e-06
 138    3.813902748254e-05
 139    -6.5649043933055e-05
 140    3.6720251736671e-07