[Molden Format]
made by pyscf v[2.10.0]
[Atoms] (AU)
Cr   1   24    -2.49590634431095     0.00008630757156    -0.00013410441443
Cr   2   24     2.49589970192362     0.00009747774268    -0.00013526470627
O   3   8    -0.00000198232270    -0.31337777322590     2.74893896974697
O   4   8    -0.00000925587856     2.53747308517977    -1.10306388853213
O   5   8     0.00000127367541    -2.22388444686427    -1.64597084497593
H   6   1     0.00003382987708     0.94728156401237     4.08168235220268
H   7   1     0.00106228308476     3.05888335248948    -2.86196050537966
H   8   1    -0.00083345803806    -4.00770344080561    -1.21723470457117
N   9   7    -5.00738946674064    -2.73196530796667     1.34438880269081
H   10   1    -4.13274932833534    -4.12333890041585     2.35157299543673
H   11   1    -5.77114516078753    -3.48503132966322    -0.25714316715081
H   12   1    -6.36321062493573    -1.89939443207042     2.43246534891805
N   13   7    -5.00740112446111     2.53037270004892     1.69376258369429
N   14   7    -5.00739700863761     0.20177045004333    -3.03824186080277
H   15   1    -6.36321349731944    -1.15682126396888    -2.86125020268286
H   16   1    -5.77115528405038     1.51993523984463     3.14670152576116
N   17   7     5.00739756610681    -2.73194291471209     1.34438647643795
N   18   7     5.00738584791511     2.53039511786994     1.69376025555171
N   19   7     5.00738992594409     0.20179285652598    -3.03824417571727
H   20   1    -4.13276768891437     4.09830942120420     2.39513740358636
H   21   1    -6.36322198218974     3.05638398559932     0.42869429619919
H   22   1    -4.13276038890235     0.02521252186353    -4.74680088099966
H   23   1    -5.77115810163203     1.96526835725211    -2.88964856090746
H   24   1     4.13276306664427    -4.12331998236762     2.35157076555991
H   25   1     5.77115479083186    -3.48500570119751    -0.25714628519891
H   26   1     6.36321485603252    -1.89936557973195     2.43246290172272
H   27   1     4.13274464937346     4.09832743029417     2.39513524929858
H   28   1     5.77114410065117     1.51996078894183     3.14669922407474
H   29   1     6.36320310571548     3.05641270376723     0.42869072839627
H   30   1     4.13275236512523     0.02523107897407    -4.74680231719152
H   31   1     5.77114213911546     1.96529463767332    -2.88965122353157
H   32   1     6.36321194396456    -1.15679341318525    -2.86125308262547
[GTO]
1 0
 s    8 1.00
          254477.80704  0.00024290477637401
          38131.797054  0.0018843523608945
          8675.2930607  0.0098009584389183
          2455.0099848    0.03982500865256
          799.16217787    0.12940543734993
          286.90021489      0.306290018085
          111.25413232    0.43462834975685
          43.864152636    0.22469562869153
 s    4 1.00
          279.32669173  -0.024363357905718
          86.274732376   -0.11511495393603
          13.555756113    0.55092266280841
          5.6978112751     0.5361135469137
 s    2 1.00
          8.5636582615   -0.37123017689407
          1.3988296768      1.168116945815
 s    1 1.00
         0.57288171116                   1
 s    1 1.00
        0.090096171317                   1
 s    1 1.00
        0.034125885135                   1
 p    6 1.00
          1306.4398864  0.0028292800654831
          309.25311441   0.022776629200026
          98.996273963    0.10564561899224
          36.756916451    0.29949944921292
          14.566657077    0.47706245356687
          5.8739937432    0.27654234376953
 p    3 1.00
          22.890999695  -0.019412106076979
          3.0855001822    0.38618875824718
          1.2132329118    0.67623908895117
 p    1 1.00
         0.44931680699                   1
 p    1 1.00
              0.120675                   1
 d    4 1.00
          43.720074476   0.022093259256368
          12.391242652    0.12801438774984
          4.2639442006    0.38652910276341
           1.552522179    0.64103301437156
 d    1 1.00
         0.53761929485                   1
 d    1 1.00
         0.16493173074                   1
 d    1 1.00
                 0.051                   1
 f    1 1.00
                 1.147                   1

2 0
 s    8 1.00
          254477.80704  0.00024290477637401
          38131.797054  0.0018843523608945
          8675.2930607  0.0098009584389183
          2455.0099848    0.03982500865256
          799.16217787    0.12940543734993
          286.90021489      0.306290018085
          111.25413232    0.43462834975685
          43.864152636    0.22469562869153
 s    4 1.00
          279.32669173  -0.024363357905718
          86.274732376   -0.11511495393603
          13.555756113    0.55092266280841
          5.6978112751     0.5361135469137
 s    2 1.00
          8.5636582615   -0.37123017689407
          1.3988296768      1.168116945815
 s    1 1.00
         0.57288171116                   1
 s    1 1.00
        0.090096171317                   1
 s    1 1.00
        0.034125885135                   1
 p    6 1.00
          1306.4398864  0.0028292800654831
          309.25311441   0.022776629200026
          98.996273963    0.10564561899224
          36.756916451    0.29949944921292
          14.566657077    0.47706245356687
          5.8739937432    0.27654234376953
 p    3 1.00
          22.890999695  -0.019412106076979
          3.0855001822    0.38618875824718
          1.2132329118    0.67623908895117
 p    1 1.00
         0.44931680699                   1
 p    1 1.00
              0.120675                   1
 d    4 1.00
          43.720074476   0.022093259256368
          12.391242652    0.12801438774984
          4.2639442006    0.38652910276341
           1.552522179    0.64103301437156
 d    1 1.00
         0.53761929485                   1
 d    1 1.00
         0.16493173074                   1
 d    1 1.00
                 0.051                   1
 f    1 1.00
                 1.147                   1

3 0
 s    5 1.00
          2266.1767785  -0.0053893503921743
          340.87010191   -0.04023472138896
          77.363135167   -0.18008184205526
           21.47964494   -0.46828857657651
          6.6589433124   -0.44692617160187
 s    1 1.00
         0.80975975668                   1
 s    1 1.00
         0.25530772234                   1
 p    3 1.00
          17.721504317   0.062630248763161
           3.863550544    0.33331138482352
          1.0480920883    0.74148638308122
 p    1 1.00
         0.27641544411                   1
 d    1 1.00
                   1.2                   1

4 0
 s    5 1.00
          2266.1767785  -0.0053893503921743
          340.87010191   -0.04023472138896
          77.363135167   -0.18008184205526
           21.47964494   -0.46828857657651
          6.6589433124   -0.44692617160187
 s    1 1.00
         0.80975975668                   1
 s    1 1.00
         0.25530772234                   1
 p    3 1.00
          17.721504317   0.062630248763161
           3.863550544    0.33331138482352
          1.0480920883    0.74148638308122
 p    1 1.00
         0.27641544411                   1
 d    1 1.00
                   1.2                   1

5 0
 s    5 1.00
          2266.1767785  -0.0053893503921743
          340.87010191   -0.04023472138896
          77.363135167   -0.18008184205526
           21.47964494   -0.46828857657651
          6.6589433124   -0.44692617160187
 s    1 1.00
         0.80975975668                   1
 s    1 1.00
         0.25530772234                   1
 p    3 1.00
          17.721504317   0.062630248763161
           3.863550544    0.33331138482352
          1.0480920883    0.74148638308122
 p    1 1.00
         0.27641544411                   1
 d    1 1.00
                   1.2                   1

6 0
 s    3 1.00
             13.010701   0.033485484812989
             1.9622572    0.23472187088125
            0.44453796    0.81377028525955
 s    1 1.00
            0.12194962                   1
 p    1 1.00
                   0.8                   1

7 0
 s    3 1.00
             13.010701   0.033485484812989
             1.9622572    0.23472187088125
            0.44453796    0.81377028525955
 s    1 1.00
            0.12194962                   1
 p    1 1.00
                   0.8                   1

8 0
 s    3 1.00
             13.010701   0.033485484812989
             1.9622572    0.23472187088125
            0.44453796    0.81377028525955
 s    1 1.00
            0.12194962                   1
 p    1 1.00
                   0.8                   1

9 0
 s    5 1.00
          1712.8415853  -0.0054477995804909
          257.64812677  -0.040627174632423
          58.458245853   -0.18111962250584
          16.198367905   -0.46843975563173
          5.0052600809   -0.44616846289231
 s    1 1.00
         0.58731856571                   1
 s    1 1.00
         0.18764592253                   1
 p    3 1.00
          13.571470233  -0.058848116969522
          2.9257372874   -0.32024624762471
         0.79927750754   -0.75328226520436
 p    1 1.00
         0.21954348034                   1
 d    1 1.00
                     1                   1

10 0
 s    3 1.00
             13.010701   0.033485484812989
             1.9622572    0.23472187088125
            0.44453796    0.81377028525955
 s    1 1.00
            0.12194962                   1
 p    1 1.00
                   0.8                   1

11 0
 s    3 1.00
             13.010701   0.033485484812989
             1.9622572    0.23472187088125
            0.44453796    0.81377028525955
 s    1 1.00
            0.12194962                   1
 p    1 1.00
                   0.8                   1

12 0
 s    3 1.00
             13.010701   0.033485484812989
             1.9622572    0.23472187088125
            0.44453796    0.81377028525955
 s    1 1.00
            0.12194962                   1
 p    1 1.00
                   0.8                   1

13 0
 s    5 1.00
          1712.8415853  -0.0054477995804909
          257.64812677  -0.040627174632423
          58.458245853   -0.18111962250584
          16.198367905   -0.46843975563173
          5.0052600809   -0.44616846289231
 s    1 1.00
         0.58731856571                   1
 s    1 1.00
         0.18764592253                   1
 p    3 1.00
          13.571470233  -0.058848116969522
          2.9257372874   -0.32024624762471
         0.79927750754   -0.75328226520436
 p    1 1.00
         0.21954348034                   1
 d    1 1.00
                     1                   1

14 0
 s    5 1.00
          1712.8415853  -0.0054477995804909
          257.64812677  -0.040627174632423
          58.458245853   -0.18111962250584
          16.198367905   -0.46843975563173
          5.0052600809   -0.44616846289231
 s    1 1.00
         0.58731856571                   1
 s    1 1.00
         0.18764592253                   1
 p    3 1.00
          13.571470233  -0.058848116969522
          2.9257372874   -0.32024624762471
         0.79927750754   -0.75328226520436
 p    1 1.00
         0.21954348034                   1
 d    1 1.00
                     1                   1

15 0
 s    3 1.00
             13.010701   0.033485484812989
             1.9622572    0.23472187088125
            0.44453796    0.81377028525955
 s    1 1.00
            0.12194962                   1
 p    1 1.00
                   0.8                   1

16 0
 s    3 1.00
             13.010701   0.033485484812989
             1.9622572    0.23472187088125
            0.44453796    0.81377028525955
 s    1 1.00
            0.12194962                   1
 p    1 1.00
                   0.8                   1

17 0
 s    5 1.00
          1712.8415853  -0.0054477995804909
          257.64812677  -0.040627174632423
          58.458245853   -0.18111962250584
          16.198367905   -0.46843975563173
          5.0052600809   -0.44616846289231
 s    1 1.00
         0.58731856571                   1
 s    1 1.00
         0.18764592253                   1
 p    3 1.00
          13.571470233  -0.058848116969522
          2.9257372874   -0.32024624762471
         0.79927750754   -0.75328226520436
 p    1 1.00
         0.21954348034                   1
 d    1 1.00
                     1                   1

18 0
 s    5 1.00
          1712.8415853  -0.0054477995804909
          257.64812677  -0.040627174632423
          58.458245853   -0.18111962250584
          16.198367905   -0.46843975563173
          5.0052600809   -0.44616846289231
 s    1 1.00
         0.58731856571                   1
 s    1 1.00
         0.18764592253                   1
 p    3 1.00
          13.571470233  -0.058848116969522
          2.9257372874   -0.32024624762471
         0.79927750754   -0.75328226520436
 p    1 1.00
         0.21954348034                   1
 d    1 1.00
                     1                   1

19 0
 s    5 1.00
          1712.8415853  -0.0054477995804909
          257.64812677  -0.040627174632423
          58.458245853   -0.18111962250584
          16.198367905   -0.46843975563173
          5.0052600809   -0.44616846289231
 s    1 1.00
         0.58731856571                   1
 s    1 1.00
         0.18764592253                   1
 p    3 1.00
          13.571470233  -0.058848116969522
          2.9257372874   -0.32024624762471
         0.79927750754   -0.75328226520436
 p    1 1.00
         0.21954348034                   1
 d    1 1.00
                     1                   1

20 0
 s    3 1.00
             13.010701   0.033485484812989
             1.9622572    0.23472187088125
            0.44453796    0.81377028525955
 s    1 1.00
            0.12194962                   1
 p    1 1.00
                   0.8                   1

21 0
 s    3 1.00
             13.010701   0.033485484812989
             1.9622572    0.23472187088125
            0.44453796    0.81377028525955
 s    1 1.00
            0.12194962                   1
 p    1 1.00
                   0.8                   1

22 0
 s    3 1.00
             13.010701   0.033485484812989
             1.9622572    0.23472187088125
            0.44453796    0.81377028525955
 s    1 1.00
            0.12194962                   1
 p    1 1.00
                   0.8                   1

23 0
 s    3 1.00
             13.010701   0.033485484812989
             1.9622572    0.23472187088125
            0.44453796    0.81377028525955
 s    1 1.00
            0.12194962                   1
 p    1 1.00
                   0.8                   1

24 0
 s    3 1.00
             13.010701   0.033485484812989
             1.9622572    0.23472187088125
            0.44453796    0.81377028525955
 s    1 1.00
            0.12194962                   1
 p    1 1.00
                   0.8                   1

25 0
 s    3 1.00
             13.010701   0.033485484812989
             1.9622572    0.23472187088125
            0.44453796    0.81377028525955
 s    1 1.00
            0.12194962                   1
 p    1 1.00
                   0.8                   1

26 0
 s    3 1.00
             13.010701   0.033485484812989
             1.9622572    0.23472187088125
            0.44453796    0.81377028525955
 s    1 1.00
            0.12194962                   1
 p    1 1.00
                   0.8                   1

27 0
 s    3 1.00
             13.010701   0.033485484812989
             1.9622572    0.23472187088125
            0.44453796    0.81377028525955
 s    1 1.00
            0.12194962                   1
 p    1 1.00
                   0.8                   1

28 0
 s    3 1.00
             13.010701   0.033485484812989
             1.9622572    0.23472187088125
            0.44453796    0.81377028525955
 s    1 1.00
            0.12194962                   1
 p    1 1.00
                   0.8                   1

29 0
 s    3 1.00
             13.010701   0.033485484812989
             1.9622572    0.23472187088125
            0.44453796    0.81377028525955
 s    1 1.00
            0.12194962                   1
 p    1 1.00
                   0.8                   1

30 0
 s    3 1.00
             13.010701   0.033485484812989
             1.9622572    0.23472187088125
            0.44453796    0.81377028525955
 s    1 1.00
            0.12194962                   1
 p    1 1.00
                   0.8                   1

31 0
 s    3 1.00
             13.010701   0.033485484812989
             1.9622572    0.23472187088125
            0.44453796    0.81377028525955
 s    1 1.00
            0.12194962                   1
 p    1 1.00
                   0.8                   1

32 0
 s    3 1.00
             13.010701   0.033485484812989
             1.9622572    0.23472187088125
            0.44453796    0.81377028525955
 s    1 1.00
            0.12194962                   1
 p    1 1.00
                   0.8                   1

[5d]
[7f]
[9g]

[MO]
 Sym= A
 Ene=               0
 Spin= Alpha
 Occup=    1.00000
   1     -0.77411703655943
   2    -0.0053922875245666
   3    0.0020635511015653
   4    -0.0018509662196763
   5      0.00227366644182
   6    -0.00014314842570118
   7    2.1082004132856e-07
   8    1.6924677742764e-09
   9    -6.3515373259719e-10
  10    3.0617162320337e-06
  11    -4.7658820428295e-09
  12    5.0032160727274e-09
  13    -3.3027973640797e-05
  14    1.3104159954434e-08
  15    -2.194925925545e-08
  16    0.00038664493670731
  17    -1.3652159466827e-08
  18    7.7219344879692e-08
  19    -4.0096506434005e-06
  20    -4.3638731383628e-09
  21    2.0179556113595e-09
  22    6.9435362134449e-06
  23    -2.924047100585e-09
  24    3.4027406141732e-05
  25    1.8074282745226e-09
  26    4.0273865719284e-09
  27    -5.8935329179704e-05
  28    -3.8797061326836e-09
  29    -0.0002537981774764
  30    1.4424791331599e-08
  31    -2.5263697019962e-08
  32    0.00043963347979053
  33    3.9796856904005e-08
  34    -5.3647896420869e-05
  35    5.1476851744795e-08
  36    2.6458527606129e-08
  37    9.2873354995138e-05
  38    -6.975173189934e-08
  39    4.9638190643481e-07
  40    -1.1098239450109e-05
  41    -1.188379320844e-06
  42    3.8427851106187e-07
  43    -7.7141695763071e-10
  44    1.4329269545021e-05
  45    -3.0643690710734e-07
  46      0.62953611122416
  47    0.0043829641082338
  48    -0.001689287397421
  49    0.0015380609578814
  50    -0.0019994370521262
  51    0.00010980374373281
  52    3.7887463111623e-07
  53    -5.4701669014444e-10
  54    -7.0965982847414e-10
  55    1.8550982631749e-06
  56    1.5300041881421e-09
  57    -1.9167103436964e-09
  58    -3.3113657879904e-05
  59    -5.7255632375864e-09
  60    1.4496352250131e-08
  61    0.00044754414787667
  62    3.0367977721279e-08
  63    -6.8037125683854e-08
  64    1.0455953971625e-06
  65    -1.9528371863934e-09
  66    1.6950773558347e-09
  67    -1.8088145505981e-06
  68    2.2258814992709e-09
  69    -2.4734759730282e-05
  70    -4.9089629371331e-09
  71    -5.7893234882479e-09
  72    4.2842650780829e-05
  73    1.6468826565371e-09
  74    0.00022784718066842
  75    6.1463140734527e-08
  76    1.9032014606615e-08
  77    -0.0003946860824332
  78    -9.5265293571731e-09
  79    5.760823078958e-05
  80    2.5065756463522e-08
  81    5.1608257656155e-08
  82     -9.9842300562e-05
  83    1.1720901489689e-07
  84    -7.5039556446387e-07
  85    -1.1749151313352e-05
  86    9.9220734831956e-07
  87    -5.8163505278793e-07
  88    8.3543624453554e-10
  89    1.5167634821938e-05
  90    2.5667037355432e-07
  91     5.33946314449e-07
  92    8.5770492565793e-06
  93    -3.6896318867262e-05
  94    -1.0847929421646e-05
  95    -3.9189757421604e-07
  96    5.0331062870702e-07
  97    0.00018994451543964
  98    -1.8503523367321e-06
  99    1.1522600780444e-05
 100    -1.3851385724012e-06
 101    -2.0501846186056e-05
 102    -5.4190612282376e-07
 103    7.8658649626606e-07
 104    3.6606192560119e-06
 105    5.3428293436275e-07
 106    8.5829487220942e-06
 107    -3.6937921544092e-05
 108    -1.0833535539635e-05
 109    6.3075874424756e-07
 110    8.3473411738807e-08
 111    0.00018985101712965
 112    1.0932894886469e-05
 113    -4.1409956535904e-06
 114    -7.4886500848663e-07
 115    7.0934505708511e-06
 116    9.6453253429766e-07
 117    1.1556074371617e-06
 118    -1.9582017642449e-05
 119    5.3280920537605e-07
 120    8.5636436992673e-06
 121    -3.6850229647304e-05
 122    -1.0831972712928e-05
 123    -2.4277072889992e-07
 124    -5.9386681747509e-07
 125    0.00018982944666958
 126    -9.0862752314816e-06
 127    -7.3431643345738e-06
 128    6.9446731195631e-08
 129    1.3411442256297e-05
 130    -4.3354436478901e-07
 131    1.6217770921247e-06
 132    1.593692964739e-05
 133    3.9431524156192e-06
 134    -6.7241573713867e-06
 135    -3.7976214818003e-06
 136    -8.1360351791598e-07
 137    -2.6878932278921e-07
 138    3.9393093864359e-06
 139    -6.6450789328312e-06
 140    -3.7339796267901e-06
 141    1.5609245032442e-07
 142    8.3295403829082e-07
 143    3.9418256470091e-06
 144    -6.8920171551786e-06
 145    -3.7129243930214e-06
 146    6.1644649733902e-07
 147    -5.9405953440109e-07
 148    5.6221237546868e-06
 149    0.00010453145070503
 150    -0.00043526720704274
 151    -9.86376435646e-06
 152    -1.4290352560549e-05
 153    7.3519208235504e-06
 154    -4.180932725005e-05
 155    -0.0002153031465255
 156    0.00012748303971655
 157    -1.505182986015e-07
 158    2.4503594261813e-06
 159    4.8115105614059e-06
 160    1.0650188823368e-05
 161    -5.0798542980911e-06
 162    -1.4095441504388e-05
 163    -3.4285542861256e-05
 164    7.5747288639828e-06
 165    1.0460780269553e-06
 166    1.1927221443625e-06
 167    4.7816741618979e-05
 168    4.3938945735148e-06
 169    -1.1927491521789e-06
 170    1.5778026184209e-05
 171    3.0859919351733e-06
 172    4.4344308997272e-05
 173    -1.5750963953798e-05
 174    1.7182562798038e-06
 175    6.8270216730672e-06
 176    -1.0665402755117e-05
 177    5.6218004039591e-06
 178    0.00010452098121309
 179    -0.00043519596700477
 180    -9.8616838841852e-06
 181    1.3510546266297e-05
 182    8.699195260963e-06
 183    -4.1789899572713e-05
 184    0.00021805131545953
 185    0.00012268582021534
 186    -3.2909726872275e-06
 187    3.1734580382255e-06
 188    -6.9028168375692e-06
 189    8.8385972615895e-06
 190    4.6604384343025e-06
 191    5.6213510008194e-06
 192    0.00010451826173396
 193    -0.00043521971603752
 194    -9.8603764759823e-06
 195    7.7904433787408e-07
 196    -1.6048262041322e-05
 197    -4.1791885471773e-05
 198    -2.746972968237e-06
 199    -0.00025019402516874
 200    -1.0508225079614e-05
 201    -5.62262585694e-06
 202    2.0935885118012e-06
 203    4.671481747846e-06
 204    4.1620472886059e-07
 205    4.4347904624848e-05
 206    -1.5803184353932e-05
 207    1.7123223374295e-06
 208    5.8228858610067e-06
 209    1.1242583988109e-05
 210    4.7818530349212e-05
 211    4.410774971485e-06
 212    -1.1910903317421e-06
 213    -5.2150171714072e-06
 214    -1.5208750480425e-05
 215    -4.6871267693017e-06
 216    -8.5796219526889e-05
 217    0.0003482736146092
 218    -8.495876074222e-06
 219    1.188909769509e-05
 220    -6.5065974297576e-06
 221    -3.3897257651859e-05
 222    0.00017394173347571
 223    -0.00011077970034348
 224    5.324171914248e-07
 225    1.4057883791174e-06
 226    -3.8679730421033e-06
 227    -9.1323245562575e-06
 228    -4.576051196727e-06
 229    -4.6867241677178e-06
 230    -8.5793613666758e-05
 231    0.00034828979926947
 232    -8.494627721732e-06
 233    -1.1579740730825e-05
 234    -7.0423864942813e-06
 235    -3.3870770580041e-05
 236    -0.00018290553432848
 237    -9.5243621809132e-05
 238    2.9662171209473e-06
 239    3.2593992318799e-06
 240    5.4880646267375e-06
 241    -7.7284850615562e-06
 242    3.505236685309e-06
 243    -4.6865513374001e-06
 244    -8.5793727085364e-05
 245    0.0003483157955417
 246    -8.4927212596359e-06
 247    -3.0791773897911e-07
 248    1.3548792192476e-05
 249    -3.3880641311702e-05
 250    8.9836923795996e-06
 251    0.00020606100327661
 252    8.7656633064294e-06
 253    -4.6672324827434e-06
 254    -1.621768703564e-06
 255    -4.3811491941454e-06
 256    1.071104906979e-06
 257    -1.4097042131858e-05
 258    -3.431229253351e-05
 259    7.5774033086641e-06
 260    5.1046422252565e-07
 261    -1.4984893341302e-06
 262    4.4341752607016e-05
 263    -1.583300287245e-05
 264    1.7094349983005e-06
 265    -1.2648201305347e-05
 266    -5.8005848889336e-07
 267    -1.4096643321416e-05
 268    -3.4306712808165e-05
 269    7.5761131587841e-06
 270    -1.5552380100152e-06
 271    3.0693326109365e-07
 272    4.7814207255419e-05
 273    4.3603190061466e-06
 274    -1.1960178151727e-06
 275    -1.0559777232727e-05
 276     1.21204818241e-05
 277     1.32701940296e-05
 278    2.8151777638299e-05
 279    6.0089708253583e-06
 280    -6.7195096191798e-08
 281    -8.9086035616702e-07
 282    -4.1992722758769e-05
 283    -5.3321102702348e-06
 284    5.4013050072528e-07
 285    -1.3785736792342e-05
 286    -2.2423909267427e-06
 287    -3.5532112931929e-05
 288    2.5587916061769e-05
 289    8.3844422541011e-07
 290    -6.326684191967e-06
 291    7.9453776875003e-06
 292    1.3276452621372e-05
 293    2.8101681679112e-05
 294    6.0066049406512e-06
 295    -7.3760347239741e-07
 296    5.0544271461979e-07
 297    -4.199543547273e-05
 298    -5.3978762824911e-06
 299    5.3958619606527e-07
 300    4.9513697895619e-06
 301    1.3065978527654e-05
 302    -3.5525246852219e-05
 303    2.5501861609564e-05
 304    8.3992159987735e-07
 305    1.0043810425317e-05
 306    1.5012157688962e-06
 307    1.327956574926e-05
 308    2.8165675564237e-05
 309    6.0090655670428e-06
 310    8.0667108845868e-07
 311    3.8891603840613e-07
 312    -4.2001335693214e-05
 313    -5.3725923117431e-06
 314    5.3780609665476e-07
 315    8.8402170012902e-06
 316    -1.0818465405149e-05
 317    -3.5531377127046e-05
 318    2.5573644038588e-05
 319    8.3586978405666e-07
 320    -3.7216745729197e-06
 321    -9.4514955972508e-06
 Sym= A
 Ene=               1
 Spin= Alpha
 Occup=    1.00000
   1      0.62953903412825
   2    0.0043960489303897
   3    -0.0016234887538256
   4     0.001344378896622
   5    -0.0011110635411704
   6    0.00014876048800854
   7    8.4613715733511e-07
   8    -1.4712054712355e-09
   9    4.6477613777018e-10
  10    -5.6051502910242e-06
  11    4.1747057981792e-09
  12    -3.9272339580683e-09
  13    -3.8189214004052e-06
  14    -1.0188457360549e-08
  15    1.7739363501897e-08
  16    0.00033857836341189
  17    1.6044884833961e-08
  18    -4.6240676167427e-08
  19    1.4131319575574e-05
  20    3.2003053271257e-09
  21    -5.6348730314486e-10
  22    -2.4472146052648e-05
  23    -3.3307227972698e-10
  24    -4.2076328587218e-05
  25    2.8612982333269e-09
  26    -1.0572294449234e-09
  27    7.2877814252628e-05
  28    1.1543273109521e-08
  29    0.00010115293732272
  30    -1.3351942584282e-08
  31    -7.2691053765079e-09
  32    -0.00017522129822055
  33    -5.4911506366511e-08
  34    -2.5095768447637e-05
  35    1.812824886528e-07
  36    3.3917787773325e-08
  37    4.3667664873646e-05
  38    7.7841515932186e-08
  39    1.298138037176e-06
  40    -4.3320209404498e-06
  41    8.3967089458494e-07
  42    1.0072460939877e-06
  43    -1.7115189377556e-09
  44    5.5919976968171e-06
  45    2.1646255967399e-07
  46       0.7741194134941
  47    0.0054029282745105
  48    -0.002010042976073
  49    0.0016934607995076
  50    -0.0015512083087297
  51    0.00017480768320563
  52    -7.8531406952159e-07
  53    -8.942748864668e-10
  54    -6.0529981733645e-10
  55    6.1114558139655e-06
  56    2.8081025330523e-09
  57    -3.649955893157e-09
  58    -2.9936131024085e-06
  59    -4.5873465958165e-09
  60    1.9694013826103e-08
  61    -0.00025265289081179
  62    -1.5710971229078e-08
  63    -6.2387025244681e-08
  64    1.4652958680225e-05
  65    -3.4815484502545e-09
  66    8.8596581869425e-10
  67    -2.5373112855908e-05
  68    2.7597920294343e-09
  69    -4.8129027805918e-05
  70    -2.9641503828281e-09
  71    -2.6461239647755e-09
  72     8.33611537477e-05
  73    -1.0886076706623e-08
  74    0.00015076962861022
  75    1.6394922203118e-08
  76    1.0825534899725e-08
  77    -0.00026115531153797
  78    7.7793511087652e-08
  79    -1.3658670929458e-05
  80    -1.3205896569792e-07
  81    7.5808694780028e-08
  82    2.3808063595909e-05
  83    -1.0386472058723e-07
  84    1.1696550520152e-06
  85    1.9786963335077e-06
  86    1.0643670984823e-06
  87    9.0774519396143e-07
  88    1.0114723805113e-09
  89    -2.5537704545371e-06
  90    2.7420253489709e-07
  91    -5.1822499052149e-06
  92    -8.3274556733164e-05
  93    0.00035834013258007
  94    -1.1173572051755e-06
  95    3.7933525677421e-06
  96    -4.89210895066e-06
  97    1.9563617503079e-05
  98    1.8026948504928e-05
  99    -0.00011192030336718
 100    1.345538101617e-05
 101    -2.1114402294371e-06
 102    5.2690704315672e-06
 103    -7.6339132071643e-06
 104    3.7725456725202e-07
 105    -5.1799604598911e-06
 106    -8.3228933857466e-05
 107     0.000358139375349
 108    -1.1149605667091e-06
 109    -6.1489378122205e-06
 110    -8.349684915366e-07
 111    1.9568234179899e-05
 112    -0.00010595966307369
 113    4.0506984289634e-05
 114    7.2058136504413e-06
 115    7.2724617940011e-07
 116    -9.4004455345093e-06
 117    -1.1223883620747e-05
 118    -2.0162124281162e-06
 119    -5.1808218406561e-06
 120    -8.3225602215884e-05
 121    0.00035805429623486
 122    -1.1164454570159e-06
 123    2.3505791227273e-06
 124    5.744253273678e-06
 125    1.9543434358176e-05
 126    8.8065168714235e-05
 127    7.1475626869332e-05
 128    -6.541197154546e-07
 129    1.380598279615e-06
 130    4.1544659920066e-06
 131    -1.5757577186652e-05
 132    1.6443680275601e-06
 133    -3.8325962114948e-05
 134    6.5301176342486e-05
 135    -3.904549020933e-07
 136    7.9012277537423e-06
 137    2.6078781065732e-06
 138    -3.8251462193224e-05
 139    6.5755976634182e-05
 140    -3.6403182917078e-07