[Molden Format]
made by pyscf v[2.10.0]
[Atoms] (AU)
Cr   1   24    -2.49590634431095     0.00008630757156    -0.00013410441443
Cr   2   24     2.49589970192362     0.00009747774268    -0.00013526470627
O   3   8    -0.00000198232270    -0.31337777322590     2.74893896974697
O   4   8    -0.00000925587856     2.53747308517977    -1.10306388853213
O   5   8     0.00000127367541    -2.22388444686427    -1.64597084497593
H   6   1     0.00003382987708     0.94728156401237     4.08168235220268
H   7   1     0.00106228308476     3.05888335248948    -2.86196050537966
H   8   1    -0.00083345803806    -4.00770344080561    -1.21723470457117
N   9   7    -5.00738946674064    -2.73196530796667     1.34438880269081
H   10   1    -4.13274932833534    -4.12333890041585     2.35157299543673
H   11   1    -5.77114516078753    -3.48503132966322    -0.25714316715081
H   12   1    -6.36321062493573    -1.89939443207042     2.43246534891805
N   13   7    -5.00740112446111     2.53037270004892     1.69376258369429
N   14   7    -5.00739700863761     0.20177045004333    -3.03824186080277
H   15   1    -6.36321349731944    -1.15682126396888    -2.86125020268286
H   16   1    -5.77115528405038     1.51993523984463     3.14670152576116
N   17   7     5.00739756610681    -2.73194291471209     1.34438647643795
N   18   7     5.00738584791511     2.53039511786994     1.69376025555171
N   19   7     5.00738992594409     0.20179285652598    -3.03824417571727
H   20   1    -4.13276768891437     4.09830942120420     2.39513740358636
H   21   1    -6.36322198218974     3.05638398559932     0.42869429619919
H   22   1    -4.13276038890235     0.02521252186353    -4.74680088099966
H   23   1    -5.77115810163203     1.96526835725211    -2.88964856090746
H   24   1     4.13276306664427    -4.12331998236762     2.35157076555991
H   25   1     5.77115479083186    -3.48500570119751    -0.25714628519891
H   26   1     6.36321485603252    -1.89936557973195     2.43246290172272
H   27   1     4.13274464937346     4.09832743029417     2.39513524929858
H   28   1     5.77114410065117     1.51996078894183     3.14669922407474
H   29   1     6.36320310571548     3.05641270376723     0.42869072839627
H   30   1     4.13275236512523     0.02523107897407    -4.74680231719152
H   31   1     5.77114213911546     1.96529463767332    -2.88965122353157
H   32   1     6.36321194396456    -1.15679341318525    -2.86125308262547
[GTO]
1 0
 s    8 1.00
          254477.80704  0.00024290477637401
          38131.797054  0.0018843523608945
          8675.2930607  0.0098009584389183
          2455.0099848    0.03982500865256
          799.16217787    0.12940543734993
          286.90021489      0.306290018085
          111.25413232    0.43462834975685
          43.864152636    0.22469562869153
 s    4 1.00
          279.32669173  -0.024363357905718
          86.274732376   -0.11511495393603
          13.555756113    0.55092266280841
          5.6978112751     0.5361135469137
 s    2 1.00
          8.5636582615   -0.37123017689407
          1.3988296768      1.168116945815
 s    1 1.00
         0.57288171116                   1
 s    1 1.00
        0.090096171317                   1
 s    1 1.00
        0.034125885135                   1
 p    6 1.00
          1306.4398864  0.0028292800654831
          309.25311441   0.022776629200026
          98.996273963    0.10564561899224
          36.756916451    0.29949944921292
          14.566657077    0.47706245356687
          5.8739937432    0.27654234376953
 p    3 1.00
          22.890999695  -0.019412106076979
          3.0855001822    0.38618875824718
          1.2132329118    0.67623908895117
 p    1 1.00
         0.44931680699                   1
 p    1 1.00
              0.120675                   1
 d    4 1.00
          43.720074476   0.022093259256368
          12.391242652    0.12801438774984
          4.2639442006    0.38652910276341
           1.552522179    0.64103301437156
 d    1 1.00
         0.53761929485                   1
 d    1 1.00
         0.16493173074                   1
 d    1 1.00
                 0.051                   1
 f    1 1.00
                 1.147                   1

2 0
 s    8 1.00
          254477.80704  0.00024290477637401
          38131.797054  0.0018843523608945
          8675.2930607  0.0098009584389183
          2455.0099848    0.03982500865256
          799.16217787    0.12940543734993
          286.90021489      0.306290018085
          111.25413232    0.43462834975685
          43.864152636    0.22469562869153
 s    4 1.00
          279.32669173  -0.024363357905718
          86.274732376   -0.11511495393603
          13.555756113    0.55092266280841
          5.6978112751     0.5361135469137
 s    2 1.00
          8.5636582615   -0.37123017689407
          1.3988296768      1.168116945815
 s    1 1.00
         0.57288171116                   1
 s    1 1.00
        0.090096171317                   1
 s    1 1.00
        0.034125885135                   1
 p    6 1.00
          1306.4398864  0.0028292800654831
          309.25311441   0.022776629200026
          98.996273963    0.10564561899224
          36.756916451    0.29949944921292
          14.566657077    0.47706245356687
          5.8739937432    0.27654234376953
 p    3 1.00
          22.890999695  -0.019412106076979
          3.0855001822    0.38618875824718
          1.2132329118    0.67623908895117
 p    1 1.00
         0.44931680699                   1
 p    1 1.00
              0.120675                   1
 d    4 1.00
          43.720074476   0.022093259256368
          12.391242652    0.12801438774984
          4.2639442006    0.38652910276341
           1.552522179    0.64103301437156
 d    1 1.00
         0.53761929485                   1
 d    1 1.00
         0.16493173074                   1
 d    1 1.00
                 0.051                   1
 f    1 1.00
                 1.147                   1

3 0
 s    5 1.00
          2266.1767785  -0.0053893503921743
          340.87010191   -0.04023472138896
          77.363135167   -0.18008184205526
           21.47964494   -0.46828857657651
          6.6589433124   -0.44692617160187
 s    1 1.00
         0.80975975668                   1
 s    1 1.00
         0.25530772234                   1
 p    3 1.00
          17.721504317   0.062630248763161
           3.863550544    0.33331138482352
          1.0480920883    0.74148638308122
 p    1 1.00
         0.27641544411                   1
 d    1 1.00
                   1.2                   1

4 0
 s    5 1.00
          2266.1767785  -0.0053893503921743
          340.87010191   -0.04023472138896
          77.363135167   -0.18008184205526
           21.47964494   -0.46828857657651
          6.6589433124   -0.44692617160187
 s    1 1.00
         0.80975975668                   1
 s    1 1.00
         0.25530772234                   1
 p    3 1.00
          17.721504317   0.062630248763161
           3.863550544    0.33331138482352
          1.0480920883    0.74148638308122
 p    1 1.00
         0.27641544411                   1
 d    1 1.00
                   1.2                   1

5 0
 s    5 1.00
          2266.1767785  -0.0053893503921743
          340.87010191   -0.04023472138896
          77.363135167   -0.18008184205526
           21.47964494   -0.46828857657651
          6.6589433124   -0.44692617160187
 s    1 1.00
         0.80975975668                   1
 s    1 1.00
         0.25530772234                   1
 p    3 1.00
          17.721504317   0.062630248763161
           3.863550544    0.33331138482352
          1.0480920883    0.74148638308122
 p    1 1.00
         0.27641544411                   1
 d    1 1.00
                   1.2                   1

6 0
 s    3 1.00
             13.010701   0.033485484812989
             1.9622572    0.23472187088125
            0.44453796    0.81377028525955
 s    1 1.00
            0.12194962                   1
 p    1 1.00
                   0.8                   1

7 0
 s    3 1.00
             13.010701   0.033485484812989
             1.9622572    0.23472187088125
            0.44453796    0.81377028525955
 s    1 1.00
            0.12194962                   1
 p    1 1.00
                   0.8                   1

8 0
 s    3 1.00
             13.010701   0.033485484812989
             1.9622572    0.23472187088125
            0.44453796    0.81377028525955
 s    1 1.00
            0.12194962                   1
 p    1 1.00
                   0.8                   1

9 0
 s    5 1.00
          1712.8415853  -0.0054477995804909
          257.64812677  -0.040627174632423
          58.458245853   -0.18111962250584
          16.198367905   -0.46843975563173
          5.0052600809   -0.44616846289231
 s    1 1.00
         0.58731856571                   1
 s    1 1.00
         0.18764592253                   1
 p    3 1.00
          13.571470233  -0.058848116969522
          2.9257372874   -0.32024624762471
         0.79927750754   -0.75328226520436
 p    1 1.00
         0.21954348034                   1
 d    1 1.00
                     1                   1

10 0
 s    3 1.00
             13.010701   0.033485484812989
             1.9622572    0.23472187088125
            0.44453796    0.81377028525955
 s    1 1.00
            0.12194962                   1
 p    1 1.00
                   0.8                   1

11 0
 s    3 1.00
             13.010701   0.033485484812989
             1.9622572    0.23472187088125
            0.44453796    0.81377028525955
 s    1 1.00
            0.12194962                   1
 p    1 1.00
                   0.8                   1

12 0
 s    3 1.00
             13.010701   0.033485484812989
             1.9622572    0.23472187088125
            0.44453796    0.81377028525955
 s    1 1.00
            0.12194962                   1
 p    1 1.00
                   0.8                   1

13 0
 s    5 1.00
          1712.8415853  -0.0054477995804909
          257.64812677  -0.040627174632423
          58.458245853   -0.18111962250584
          16.198367905   -0.46843975563173
          5.0052600809   -0.44616846289231
 s    1 1.00
         0.58731856571                   1
 s    1 1.00
         0.18764592253                   1
 p    3 1.00
          13.571470233  -0.058848116969522
          2.9257372874   -0.32024624762471
         0.79927750754   -0.75328226520436
 p    1 1.00
         0.21954348034                   1
 d    1 1.00
                     1                   1

14 0
 s    5 1.00
          1712.8415853  -0.0054477995804909
          257.64812677  -0.040627174632423
          58.458245853   -0.18111962250584
          16.198367905   -0.46843975563173
          5.0052600809   -0.44616846289231
 s    1 1.00
         0.58731856571                   1
 s    1 1.00
         0.18764592253                   1
 p    3 1.00
          13.571470233  -0.058848116969522
          2.9257372874   -0.32024624762471
         0.79927750754   -0.75328226520436
 p    1 1.00
         0.21954348034                   1
 d    1 1.00
                     1                   1

15 0
 s    3 1.00
             13.010701   0.033485484812989
             1.9622572    0.23472187088125
            0.44453796    0.81377028525955
 s    1 1.00
            0.12194962                   1
 p    1 1.00
                   0.8                   1

16 0
 s    3 1.00
             13.010701   0.033485484812989
             1.9622572    0.23472187088125
            0.44453796    0.81377028525955
 s    1 1.00
            0.12194962                   1
 p    1 1.00
                   0.8                   1

17 0
 s    5 1.00
          1712.8415853  -0.0054477995804909
          257.64812677  -0.040627174632423
          58.458245853   -0.18111962250584
          16.198367905   -0.46843975563173
          5.0052600809   -0.44616846289231
 s    1 1.00
         0.58731856571                   1
 s    1 1.00
         0.18764592253                   1
 p    3 1.00
          13.571470233  -0.058848116969522
          2.9257372874   -0.32024624762471
         0.79927750754   -0.75328226520436
 p    1 1.00
         0.21954348034                   1
 d    1 1.00
                     1                   1

18 0
 s    5 1.00
          1712.8415853  -0.0054477995804909
          257.64812677  -0.040627174632423
          58.458245853   -0.18111962250584
          16.198367905   -0.46843975563173
          5.0052600809   -0.44616846289231
 s    1 1.00
         0.58731856571                   1
 s    1 1.00
         0.18764592253                   1
 p    3 1.00
          13.571470233  -0.058848116969522
          2.9257372874   -0.32024624762471
         0.79927750754   -0.75328226520436
 p    1 1.00
         0.21954348034                   1
 d    1 1.00
                     1                   1

19 0
 s    5 1.00
          1712.8415853  -0.0054477995804909
          257.64812677  -0.040627174632423
          58.458245853   -0.18111962250584
          16.198367905   -0.46843975563173
          5.0052600809   -0.44616846289231
 s    1 1.00
         0.58731856571                   1
 s    1 1.00
         0.18764592253                   1
 p    3 1.00
          13.571470233  -0.058848116969522
          2.9257372874   -0.32024624762471
         0.79927750754   -0.75328226520436
 p    1 1.00
         0.21954348034                   1
 d    1 1.00
                     1                   1

20 0
 s    3 1.00
             13.010701   0.033485484812989
             1.9622572    0.23472187088125
            0.44453796    0.81377028525955
 s    1 1.00
            0.12194962                   1
 p    1 1.00
                   0.8                   1

21 0
 s    3 1.00
             13.010701   0.033485484812989
             1.9622572    0.23472187088125
            0.44453796    0.81377028525955
 s    1 1.00
            0.12194962                   1
 p    1 1.00
                   0.8                   1

22 0
 s    3 1.00
             13.010701   0.033485484812989
             1.9622572    0.23472187088125
            0.44453796    0.81377028525955
 s    1 1.00
            0.12194962                   1
 p    1 1.00
                   0.8                   1

23 0
 s    3 1.00
             13.010701   0.033485484812989
             1.9622572    0.23472187088125
            0.44453796    0.81377028525955
 s    1 1.00
            0.12194962                   1
 p    1 1.00
                   0.8                   1

24 0
 s    3 1.00
             13.010701   0.033485484812989
             1.9622572    0.23472187088125
            0.44453796    0.81377028525955
 s    1 1.00
            0.12194962                   1
 p    1 1.00
                   0.8                   1

25 0
 s    3 1.00
             13.010701   0.033485484812989
             1.9622572    0.23472187088125
            0.44453796    0.81377028525955
 s    1 1.00
            0.12194962                   1
 p    1 1.00
                   0.8                   1

26 0
 s    3 1.00
             13.010701   0.033485484812989
             1.9622572    0.23472187088125
            0.44453796    0.81377028525955
 s    1 1.00
            0.12194962                   1
 p    1 1.00
                   0.8                   1

27 0
 s    3 1.00
             13.010701   0.033485484812989
             1.9622572    0.23472187088125
            0.44453796    0.81377028525955
 s    1 1.00
            0.12194962                   1
 p    1 1.00
                   0.8                   1

28 0
 s    3 1.00
             13.010701   0.033485484812989
             1.9622572    0.23472187088125
            0.44453796    0.81377028525955
 s    1 1.00
            0.12194962                   1
 p    1 1.00
                   0.8                   1

29 0
 s    3 1.00
             13.010701   0.033485484812989
             1.9622572    0.23472187088125
            0.44453796    0.81377028525955
 s    1 1.00
            0.12194962                   1
 p    1 1.00
                   0.8                   1

30 0
 s    3 1.00
             13.010701   0.033485484812989
             1.9622572    0.23472187088125
            0.44453796    0.81377028525955
 s    1 1.00
            0.12194962                   1
 p    1 1.00
                   0.8                   1

31 0
 s    3 1.00
             13.010701   0.033485484812989
             1.9622572    0.23472187088125
            0.44453796    0.81377028525955
 s    1 1.00
            0.12194962                   1
 p    1 1.00
                   0.8                   1

32 0
 s    3 1.00
             13.010701   0.033485484812989
             1.9622572    0.23472187088125
            0.44453796    0.81377028525955
 s    1 1.00
            0.12194962                   1
 p    1 1.00
                   0.8                   1

[5d]
[7f]
[9g]

[MO]
 Sym= A
 Ene=               0
 Spin= Alpha
 Occup=    1.00000
   1     -0.84761243018668
   2    -0.0059058065960983
   3    0.0022526274921799
   4    -0.0020059648592277
   5    0.0023947516358151
   6    -0.00016072401655149
   7    3.6117180455426e-08
   8    1.8414096366095e-09
   9    -6.9646472689002e-10
  10    3.9252285208414e-06
  11    -5.2831372534945e-09
  12    5.5264312831717e-09
  13    -3.2199939310104e-05
  14    1.4184355634676e-08
  15    -2.4028852258641e-08
  16    0.00034010842908747
  17    -1.4995428069756e-08
  18    8.2585989404621e-08
  19    -7.0707597248013e-06
  20    -2.0988666194306e-09
  21    -1.3568636247081e-09
  22    1.2245908695656e-05
  23    -1.3244753882778e-09
  24    3.8304031113915e-05
  25    4.8609908854889e-09
  26    2.296770714848e-09
  27    -6.6341923522737e-05
  28    -1.9353245921225e-09
  29    -0.00026450348917139
  30     1.33760142692e-08
  31    -2.3094474576927e-08
  32    0.00045817584819783
  33    4.3364317876155e-08
  34    -5.0032562356552e-05
  35    2.7774685099559e-08
  36    2.2422121717327e-08
  37    8.6586185206944e-05
  38    -7.9236291103358e-08
  39    3.308301509595e-07
  40    -1.0438699052586e-05
  41    -1.2890194750832e-06
  42    2.5581870738243e-07
  43    -5.2031939737509e-10
  44    1.3477869639009e-05
  45    -3.3236365656302e-07
  46      0.52642783244637
  47    0.0036635554769515
  48    -0.0014211043626599
  49    0.0013107109158643
  50    -0.0017852674454441
  51    8.687857665599e-05
  52    4.3807605416089e-07
  53    -4.6603242126799e-10
  54    -6.5163935692342e-10
  55    1.1701486976298e-06
  56    1.150792185328e-09
  57    -1.4407612161943e-09
  58    -3.2454630273565e-05
  59    -5.1877537739151e-09
  60    1.1787005892606e-08
  61    0.00047571480806009
  62    3.2632719739192e-08
  63    -5.9392962512185e-08
  64    1.825396610569e-06
  65    1.6592505414921e-10
  66    1.4395958487041e-09
  67    -3.1612527668337e-06
  68    -1.9387635969878e-10
  69    -1.6884306948974e-05
  70    -3.111476339709e-09
  71    -5.6874650115145e-09
  72    2.9244258558144e-05
  73    1.4241691743319e-09
  74    0.00020705369710082
  75    5.7754930055355e-08
  76    1.7883014021522e-08
  77    -0.00035866718188506
  78    -1.8877409464403e-08
  79    5.8723618794401e-05
  80    4.0696038873634e-08
  81    4.1352223395035e-08
  82    -0.0001017924281093
  83    1.2914166859877e-07
  84    -8.9440456745303e-07
  85    -1.1890128273321e-05
  86    8.5426456351379e-07
  87    -6.9336340733186e-07
  88    6.9218103190137e-10
  89    1.5349559181027e-05
  90    2.2114852381851e-07
  91    1.1877659392231e-06
  92    1.9096271343913e-05
  93    -8.2046337878818e-05
  94    -1.0751576264469e-05
  95    -8.6058781662648e-07
  96    1.0482404853039e-06
  97    0.00018591649248997
  98    -4.1170573792639e-06
  99    2.5637339095334e-05
 100    -3.0932717728078e-06
 101    -2.0039776998998e-05
 102    -1.1993816374994e-06
 103    1.751416735654e-06
 104    3.5807508132993e-06
 105    1.1877998489504e-06
 106    1.909615813109e-05
 107    -8.2061673521713e-05
 108    -1.0737830505931e-05
 109    1.339123699876e-06
 110    2.1629400611889e-07
 111    0.0001858239719478
 112    2.4292105866602e-05
 113    -9.2548139792338e-06
 114    -1.6522386017423e-06
 115    6.9317309144874e-06
 116    2.1540294950526e-06
 117    2.5828059819685e-06
 118    -1.9142137957959e-05
 119    1.1865110719973e-06
 120    1.9077540344978e-05
 121    -8.1967365464429e-05
 122    -1.0736339623751e-05
 123    -4.8140225599257e-07
 124    -1.2737182039593e-06
 125    0.00018580653898121
 126    -2.019594155517e-05
 127    -1.6352240017276e-05
 128    1.4665049518575e-07
 129    1.3111618266143e-05
 130    -9.6844940165072e-07
 131    3.6145845261985e-06
 132    1.5576119255134e-05
 133    8.7382496064939e-06
 134    -1.4919870041445e-05
 135    -3.7199914623868e-06
 136    -1.8010006857328e-06
 137    -6.0405042022691e-07
 138    8.7251355117093e-06
 139    -1.4898259699586e-05
 140    -3.6602626163337e-06
 141    3.7045231642467e-07
 142    1.8478835268413e-06
 143    8.7244713880199e-06
 144    -1.5148783843717e-05
 145    -3.6349972815702e-06
 146    1.3864609457691e-06
 147    -1.288279999387e-06
 148    6.0815182025205e-06
 149    0.00011390826532502
 150    -0.00047993192352062
 151    -1.0537588451372e-05
 152    -1.5413469284075e-05
 153    7.6891850984581e-06
 154    -4.5974547407626e-05
 155    -0.00023624914755242
 156    0.0001350461689756
 157    9.384936774435e-08
 158    3.0407539909638e-06
 159    5.2938477122276e-06
 160    1.134872124196e-05
 161    -5.2800832389127e-06
 162    -1.4211292491374e-05
 163    -3.7345824635971e-05
 164    8.3733505872281e-06
 165    1.6354494761413e-06
 166    1.3428632532255e-06
 167    5.0349334572084e-05
 168    3.6554745733554e-06
 169    -2.2347973817915e-06
 170    1.6646905906456e-05
 171    3.5394450373716e-06
 172    4.8782971307759e-05
 173    -9.3757636388071e-06
 174    2.2288485539064e-06
 175    6.9899751060762e-06
 176    -1.2100227463296e-05
 177    6.0812241661734e-06
 178    0.00011389791681494
 179    -0.00047985652174948
 180    -1.0535992935011e-05
 181    1.4364094039523e-05
 182    9.5032869987328e-06
 183    -4.5958118093222e-05
 184    0.00023507101153997
 185    0.00013704314888821
 186    -3.4131613739316e-06
 187    3.0514908466071e-06
 188    -7.6299901631889e-06
 189    9.3254368048883e-06
 190    5.271713641118e-06
 191    6.0806955663444e-06
 192    0.0001138944213375
 193    -0.00047988612838243
 194    -1.0534215128756e-05
 195    1.0485259268291e-06
 196    -1.7189172988521e-05
 197    -4.595532038378e-05
 198    1.1802555306535e-06
 199    -0.00027211146894505
 200    -1.1354273067638e-05
 201    -6.0907457259676e-06
 202    2.3382364089908e-06
 203    4.7404088818666e-06
 204    4.811162013253e-09
 205    4.8785501250864e-05
 206    -9.4099394869772e-06
 207    2.2238325447813e-06
 208    6.9844248365035e-06
 209    1.2100381562543e-05
 210    5.0351195700482e-05
 211    3.6641236936902e-06
 212    -2.2329650627631e-06
 213    -5.2570944639676e-06
 214    -1.6187166706874e-05
 215    -4.0046810083507e-06
 216    -7.2244175760351e-05
 217    0.0002865420072895
 218    -7.5487637169924e-06
 219    1.0023082094132e-05
 220    -5.7828391685509e-06
 221    -2.8431055516299e-05
 222    0.00014421244453684
 223    -9.7823594153967e-05
 224    7.5079743359111e-07
 225    7.163754181009e-07
 226    -3.196017353771e-06
 227    -7.9644142562092e-06
 228    -4.1544585506995e-06
 229    -4.0042599674934e-06
 230    -7.224204329512e-05
 231    0.00028656639643642
 232    -7.5472230553445e-06
 233    -1.0020256013778e-05
 234    -5.7880431560156e-06
 235    -2.8403234060482e-05
 236    -0.00015682678771847
 237    -7.5977340885164e-05
 238    2.6844745984355e-06
 239    3.2393247372545e-06
 240    4.4823341039957e-06
 241    -6.849279044036e-06
 242    2.6977884628073e-06
 243    -4.0042234151476e-06
 244    -7.2242757018325e-05
 245    0.00028658327656442
 246    -7.5456689605381e-06
 247    -1.7363039362225e-09
 248    1.157107725443e-05
 249    -2.8416139627874e-05
 250    1.2632231242016e-05
 251    0.00017383953861721
 252    7.4756956411954e-06
 253    -3.9578365415072e-06
 254    -1.2880908500487e-06
 255    -4.084080206381e-06
 256    1.4576298484172e-06
 257    -1.4210933354836e-05
 258    -3.7371311585081e-05
 259    8.3761710605152e-06
 260    3.4559855873566e-07
 261    -2.0836057896547e-06
 262    4.8779669766917e-05
 263    -9.4616608660448e-06
 264    2.2196309939229e-06
 265    -1.3971710340325e-05
 266    -4.159600802026e-09
 267    -1.4212208937153e-05
 268    -3.7355458496392e-05
 269    8.3739240993992e-06
 270    -1.9802638370278e-06
 271    7.4256275210277e-07
 272    5.0345995048022e-05
 273    3.6217295151749e-06
 274    -2.2386337099549e-06
 275    -1.138662576197e-05
 276    1.2646290939116e-05
 277    1.2297457420446e-05
 278    2.3682069236375e-05
 279    4.8797853236399e-06
 280    5.3348371080857e-07
 281    -6.6707838211793e-07
 282    -3.7358340093676e-05
 283    -5.8039917773731e-06
 284    1.6187923589553e-06
 285    -1.2201890372778e-05
 286    -1.6672017014393e-06
 287    -2.912648811354e-05
 288    3.1000189052564e-05
 289    2.8464992947131e-07
 290    -5.8705586174269e-06
 291    6.0497138562919e-06
 292    1.2305434141876e-05
 293    2.3637259587768e-05
 294    4.8773871906918e-06
 295    -8.4452970622394e-07
 296    -1.2649636214265e-07
 297    -3.7361465785199e-05
 298    -5.8768433673533e-06
 299    1.6179872094658e-06
 300    4.6571659595305e-06
 301    1.1407342276441e-05
 302    -2.912042813905e-05
 303    3.090849489801e-05
 304    2.8674964977769e-07
 305    8.1748599874205e-06
 306    2.0536880304436e-06
 307    1.230684523737e-05
 308    2.3705703611102e-05
 309    4.8804751798848e-06
 310    3.1206764716173e-07
 311    7.9759500355307e-07
 312    -3.7366992275612e-05
 313    -5.8521573795614e-06
 314    1.6173703416904e-06
 315    7.5505589172586e-06
 316    -9.7342089582354e-06
 317    -2.9126840538035e-05
 318    3.1000627549275e-05
 319    2.8150893112518e-07
 320    -2.3076168509905e-06
 321    -8.1095334224245e-06
 Sym= A
 Ene=               1
 Spin= Alpha
 Occup=    1.00000
   1     -0.52643102616843
   2    -0.0036778124791477
   3    0.0013492823392995
   4    -0.0010995300423469
   5    0.00081514326970199
   6    -0.00012898716313593
   7    -9.1532045871109e-07
   8    1.2207093539445e-09
   9    -3.7887106143379e-10
  10    5.298204979335e-06
  11    -3.5366754602112e-09
  12    3.3052280867785e-09
  13    8.099813741873e-06
  14    8.4950153101789e-09
  15    -1.4963617406061e-08
  16    -0.00038541479018944
  17    -1.4484671914384e-08
  18    3.6610451401154e-08
  19    -1.017975429324e-05
  20    -7.7345015041229e-10
  21    -8.855062408922e-10
  22    1.7630891602693e-05
  23    1.052560313181e-09
  24    3.9365703731862e-05
  25    -6.163082690376e-10
  26    8.0849343877605e-11
  27    -6.8181034819064e-05
  28    -9.397799281848e-09
  29    -6.7765446595413e-05
  30    9.6008332872828e-09
  31    1.0836862384541e-08
  32    0.00011738537694068
  33    4.7838387515098e-08
  34    3.1358611387136e-05
  35    -1.858489170794e-07
  36    -3.6790930364246e-08
  37    -5.4507170248551e-05
  38    -6.8764690422081e-08
  39    -1.3490957199979e-06
  40    5.7123766628925e-06
  41    -6.7928287804271e-07
  42    -1.0466746032967e-06
  43     1.81271090807e-09
  44    -7.374258293605e-06
  45    -1.7509194700704e-07
  46      -0.8476144137018
  47     -0.00591466092666
  48    0.0022080218820935
  49    -0.0018748086260564
  50    0.0017922294848872
  51    -0.00018685672351304
  52    8.0444326969921e-07
  53    1.0439846099132e-09
  54    7.4009137262203e-10
  55    -6.4891101679769e-06
  56    -3.0317580147149e-09
  57    3.8734606164987e-09
  58    7.0130082655046e-06
  59    5.2974455033031e-09
  60    -2.1465293754514e-08
  61    0.00019471382832294
  62    1.1712167097535e-08
  63    7.0857133464287e-08
  64    -1.2259450469841e-05
  65    4.457888273622e-10
  66    -9.8586870992084e-10
  67    2.1231704059734e-05
  68    -2.0527316155657e-09
  69    5.2266633326106e-05
  70    6.5598476364376e-10
  71    3.4996481649038e-09
  72    -9.0523769091052e-05
  73    1.1494324364694e-08
  74    -0.00017799827183477
  75    -2.2145587069827e-08
  76    -1.3478378938645e-08
  77    0.00030831951484934
  78    -7.6809471458878e-08
  79    5.9596210945173e-06
  80    1.2777544408274e-07
  81    -8.1860348392111e-08
  82    -1.0464033507943e-05
  83    8.7760014782273e-08
  84    -1.0626428349813e-06
  85    -4.930227502579e-07
  86    -1.1803704181183e-06
  87    -8.2478495106601e-07
  88    -1.1153290297774e-09
  89    6.3585985323602e-07
  90    -3.0420720058282e-07
  91    5.0806396553114e-06
  92    8.1696955359258e-05
  93    -0.00035105937532614
  94    2.513154964773e-06
  95    -3.6764703110837e-06
  96    4.4871222099069e-06
  97    -4.3456938406677e-05
  98    -1.7642223073824e-05
  99    0.00010970139715203
 100    -1.3236639572121e-05
 101    4.6839947231941e-06
 102    -5.134441354301e-06
 103    7.4915773865775e-06
 104    -8.3720588203489e-07
 105    5.0784062869399e-06
 106    8.1652150967908e-05
 107    -0.00035085885495706
 108    2.5091772976216e-06
 109    5.7393319460222e-06
 110    9.3701028594293e-07
 111    -4.3450425850422e-05
 112    0.00010384270346159
 113    -3.9731086570992e-05
 114    -7.0393237298554e-06
 115    -1.6168303344963e-06
 116    9.2314774958775e-06
 117    1.1051340920185e-05
 118    4.4737166178318e-06
 119    5.0794521729475e-06
 120    8.1651363564738e-05
 121    -0.00035078608880786
 122    2.5102354767317e-06
 123    -2.0573927611736e-06
 124    -5.4398025724269e-06
 125    -4.3422176061815e-05
 126    -8.6330930208559e-05
 127    -7.0037442598775e-05
 128    6.1841348862807e-07
 129    -3.0639995484409e-06
 130    -4.1185252661815e-06
 131    1.5469133176158e-05
 132    -3.643799003144e-06
 133    3.7402926751778e-05
 134    -6.3835749906376e-05
 135    8.688354576838e-07
 136    -7.7059907857107e-06
 137    -2.5834800911462e-06
 138    3.7330584133312e-05
 139    -6.4296929502398e-05
 140    8.3464124019867e-07