[Molden Format]
made by pyscf v[2.10.0]
[Atoms] (AU)
Cr   1   24    -2.49590634431095     0.00008630757156    -0.00013410441443
Cr   2   24     2.49589970192362     0.00009747774268    -0.00013526470627
O   3   8    -0.00000198232270    -0.31337777322590     2.74893896974697
O   4   8    -0.00000925587856     2.53747308517977    -1.10306388853213
O   5   8     0.00000127367541    -2.22388444686427    -1.64597084497593
H   6   1     0.00003382987708     0.94728156401237     4.08168235220268
H   7   1     0.00106228308476     3.05888335248948    -2.86196050537966
H   8   1    -0.00083345803806    -4.00770344080561    -1.21723470457117
N   9   7    -5.00738946674064    -2.73196530796667     1.34438880269081
H   10   1    -4.13274932833534    -4.12333890041585     2.35157299543673
H   11   1    -5.77114516078753    -3.48503132966322    -0.25714316715081
H   12   1    -6.36321062493573    -1.89939443207042     2.43246534891805
N   13   7    -5.00740112446111     2.53037270004892     1.69376258369429
N   14   7    -5.00739700863761     0.20177045004333    -3.03824186080277
H   15   1    -6.36321349731944    -1.15682126396888    -2.86125020268286
H   16   1    -5.77115528405038     1.51993523984463     3.14670152576116
N   17   7     5.00739756610681    -2.73194291471209     1.34438647643795
N   18   7     5.00738584791511     2.53039511786994     1.69376025555171
N   19   7     5.00738992594409     0.20179285652598    -3.03824417571727
H   20   1    -4.13276768891437     4.09830942120420     2.39513740358636
H   21   1    -6.36322198218974     3.05638398559932     0.42869429619919
H   22   1    -4.13276038890235     0.02521252186353    -4.74680088099966
H   23   1    -5.77115810163203     1.96526835725211    -2.88964856090746
H   24   1     4.13276306664427    -4.12331998236762     2.35157076555991
H   25   1     5.77115479083186    -3.48500570119751    -0.25714628519891
H   26   1     6.36321485603252    -1.89936557973195     2.43246290172272
H   27   1     4.13274464937346     4.09832743029417     2.39513524929858
H   28   1     5.77114410065117     1.51996078894183     3.14669922407474
H   29   1     6.36320310571548     3.05641270376723     0.42869072839627
H   30   1     4.13275236512523     0.02523107897407    -4.74680231719152
H   31   1     5.77114213911546     1.96529463767332    -2.88965122353157
H   32   1     6.36321194396456    -1.15679341318525    -2.86125308262547
[GTO]
1 0
 s    8 1.00
          254477.80704  0.00024290477637401
          38131.797054  0.0018843523608945
          8675.2930607  0.0098009584389183
          2455.0099848    0.03982500865256
          799.16217787    0.12940543734993
          286.90021489      0.306290018085
          111.25413232    0.43462834975685
          43.864152636    0.22469562869153
 s    4 1.00
          279.32669173  -0.024363357905718
          86.274732376   -0.11511495393603
          13.555756113    0.55092266280841
          5.6978112751     0.5361135469137
 s    2 1.00
          8.5636582615   -0.37123017689407
          1.3988296768      1.168116945815
 s    1 1.00
         0.57288171116                   1
 s    1 1.00
        0.090096171317                   1
 s    1 1.00
        0.034125885135                   1
 p    6 1.00
          1306.4398864  0.0028292800654831
          309.25311441   0.022776629200026
          98.996273963    0.10564561899224
          36.756916451    0.29949944921292
          14.566657077    0.47706245356687
          5.8739937432    0.27654234376953
 p    3 1.00
          22.890999695  -0.019412106076979
          3.0855001822    0.38618875824718
          1.2132329118    0.67623908895117
 p    1 1.00
         0.44931680699                   1
 p    1 1.00
              0.120675                   1
 d    4 1.00
          43.720074476   0.022093259256368
          12.391242652    0.12801438774984
          4.2639442006    0.38652910276341
           1.552522179    0.64103301437156
 d    1 1.00
         0.53761929485                   1
 d    1 1.00
         0.16493173074                   1
 d    1 1.00
                 0.051                   1
 f    1 1.00
                 1.147                   1

2 0
 s    8 1.00
          254477.80704  0.00024290477637401
          38131.797054  0.0018843523608945
          8675.2930607  0.0098009584389183
          2455.0099848    0.03982500865256
          799.16217787    0.12940543734993
          286.90021489      0.306290018085
          111.25413232    0.43462834975685
          43.864152636    0.22469562869153
 s    4 1.00
          279.32669173  -0.024363357905718
          86.274732376   -0.11511495393603
          13.555756113    0.55092266280841
          5.6978112751     0.5361135469137
 s    2 1.00
          8.5636582615   -0.37123017689407
          1.3988296768      1.168116945815
 s    1 1.00
         0.57288171116                   1
 s    1 1.00
        0.090096171317                   1
 s    1 1.00
        0.034125885135                   1
 p    6 1.00
          1306.4398864  0.0028292800654831
          309.25311441   0.022776629200026
          98.996273963    0.10564561899224
          36.756916451    0.29949944921292
          14.566657077    0.47706245356687
          5.8739937432    0.27654234376953
 p    3 1.00
          22.890999695  -0.019412106076979
          3.0855001822    0.38618875824718
          1.2132329118    0.67623908895117
 p    1 1.00
         0.44931680699                   1
 p    1 1.00
              0.120675                   1
 d    4 1.00
          43.720074476   0.022093259256368
          12.391242652    0.12801438774984
          4.2639442006    0.38652910276341
           1.552522179    0.64103301437156
 d    1 1.00
         0.53761929485                   1
 d    1 1.00
         0.16493173074                   1
 d    1 1.00
                 0.051                   1
 f    1 1.00
                 1.147                   1

3 0
 s    5 1.00
          2266.1767785  -0.0053893503921743
          340.87010191   -0.04023472138896
          77.363135167   -0.18008184205526
           21.47964494   -0.46828857657651
          6.6589433124   -0.44692617160187
 s    1 1.00
         0.80975975668                   1
 s    1 1.00
         0.25530772234                   1
 p    3 1.00
          17.721504317   0.062630248763161
           3.863550544    0.33331138482352
          1.0480920883    0.74148638308122
 p    1 1.00
         0.27641544411                   1
 d    1 1.00
                   1.2                   1

4 0
 s    5 1.00
          2266.1767785  -0.0053893503921743
          340.87010191   -0.04023472138896
          77.363135167   -0.18008184205526
           21.47964494   -0.46828857657651
          6.6589433124   -0.44692617160187
 s    1 1.00
         0.80975975668                   1
 s    1 1.00
         0.25530772234                   1
 p    3 1.00
          17.721504317   0.062630248763161
           3.863550544    0.33331138482352
          1.0480920883    0.74148638308122
 p    1 1.00
         0.27641544411                   1
 d    1 1.00
                   1.2                   1

5 0
 s    5 1.00
          2266.1767785  -0.0053893503921743
          340.87010191   -0.04023472138896
          77.363135167   -0.18008184205526
           21.47964494   -0.46828857657651
          6.6589433124   -0.44692617160187
 s    1 1.00
         0.80975975668                   1
 s    1 1.00
         0.25530772234                   1
 p    3 1.00
          17.721504317   0.062630248763161
           3.863550544    0.33331138482352
          1.0480920883    0.74148638308122
 p    1 1.00
         0.27641544411                   1
 d    1 1.00
                   1.2                   1

6 0
 s    3 1.00
             13.010701   0.033485484812989
             1.9622572    0.23472187088125
            0.44453796    0.81377028525955
 s    1 1.00
            0.12194962                   1
 p    1 1.00
                   0.8                   1

7 0
 s    3 1.00
             13.010701   0.033485484812989
             1.9622572    0.23472187088125
            0.44453796    0.81377028525955
 s    1 1.00
            0.12194962                   1
 p    1 1.00
                   0.8                   1

8 0
 s    3 1.00
             13.010701   0.033485484812989
             1.9622572    0.23472187088125
            0.44453796    0.81377028525955
 s    1 1.00
            0.12194962                   1
 p    1 1.00
                   0.8                   1

9 0
 s    5 1.00
          1712.8415853  -0.0054477995804909
          257.64812677  -0.040627174632423
          58.458245853   -0.18111962250584
          16.198367905   -0.46843975563173
          5.0052600809   -0.44616846289231
 s    1 1.00
         0.58731856571                   1
 s    1 1.00
         0.18764592253                   1
 p    3 1.00
          13.571470233  -0.058848116969522
          2.9257372874   -0.32024624762471
         0.79927750754   -0.75328226520436
 p    1 1.00
         0.21954348034                   1
 d    1 1.00
                     1                   1

10 0
 s    3 1.00
             13.010701   0.033485484812989
             1.9622572    0.23472187088125
            0.44453796    0.81377028525955
 s    1 1.00
            0.12194962                   1
 p    1 1.00
                   0.8                   1

11 0
 s    3 1.00
             13.010701   0.033485484812989
             1.9622572    0.23472187088125
            0.44453796    0.81377028525955
 s    1 1.00
            0.12194962                   1
 p    1 1.00
                   0.8                   1

12 0
 s    3 1.00
             13.010701   0.033485484812989
             1.9622572    0.23472187088125
            0.44453796    0.81377028525955
 s    1 1.00
            0.12194962                   1
 p    1 1.00
                   0.8                   1

13 0
 s    5 1.00
          1712.8415853  -0.0054477995804909
          257.64812677  -0.040627174632423
          58.458245853   -0.18111962250584
          16.198367905   -0.46843975563173
          5.0052600809   -0.44616846289231
 s    1 1.00
         0.58731856571                   1
 s    1 1.00
         0.18764592253                   1
 p    3 1.00
          13.571470233  -0.058848116969522
          2.9257372874   -0.32024624762471
         0.79927750754   -0.75328226520436
 p    1 1.00
         0.21954348034                   1
 d    1 1.00
                     1                   1

14 0
 s    5 1.00
          1712.8415853  -0.0054477995804909
          257.64812677  -0.040627174632423
          58.458245853   -0.18111962250584
          16.198367905   -0.46843975563173
          5.0052600809   -0.44616846289231
 s    1 1.00
         0.58731856571                   1
 s    1 1.00
         0.18764592253                   1
 p    3 1.00
          13.571470233  -0.058848116969522
          2.9257372874   -0.32024624762471
         0.79927750754   -0.75328226520436
 p    1 1.00
         0.21954348034                   1
 d    1 1.00
                     1                   1

15 0
 s    3 1.00
             13.010701   0.033485484812989
             1.9622572    0.23472187088125
            0.44453796    0.81377028525955
 s    1 1.00
            0.12194962                   1
 p    1 1.00
                   0.8                   1

16 0
 s    3 1.00
             13.010701   0.033485484812989
             1.9622572    0.23472187088125
            0.44453796    0.81377028525955
 s    1 1.00
            0.12194962                   1
 p    1 1.00
                   0.8                   1

17 0
 s    5 1.00
          1712.8415853  -0.0054477995804909
          257.64812677  -0.040627174632423
          58.458245853   -0.18111962250584
          16.198367905   -0.46843975563173
          5.0052600809   -0.44616846289231
 s    1 1.00
         0.58731856571                   1
 s    1 1.00
         0.18764592253                   1
 p    3 1.00
          13.571470233  -0.058848116969522
          2.9257372874   -0.32024624762471
         0.79927750754   -0.75328226520436
 p    1 1.00
         0.21954348034                   1
 d    1 1.00
                     1                   1

18 0
 s    5 1.00
          1712.8415853  -0.0054477995804909
          257.64812677  -0.040627174632423
          58.458245853   -0.18111962250584
          16.198367905   -0.46843975563173
          5.0052600809   -0.44616846289231
 s    1 1.00
         0.58731856571                   1
 s    1 1.00
         0.18764592253                   1
 p    3 1.00
          13.571470233  -0.058848116969522
          2.9257372874   -0.32024624762471
         0.79927750754   -0.75328226520436
 p    1 1.00
         0.21954348034                   1
 d    1 1.00
                     1                   1

19 0
 s    5 1.00
          1712.8415853  -0.0054477995804909
          257.64812677  -0.040627174632423
          58.458245853   -0.18111962250584
          16.198367905   -0.46843975563173
          5.0052600809   -0.44616846289231
 s    1 1.00
         0.58731856571                   1
 s    1 1.00
         0.18764592253                   1
 p    3 1.00
          13.571470233  -0.058848116969522
          2.9257372874   -0.32024624762471
         0.79927750754   -0.75328226520436
 p    1 1.00
         0.21954348034                   1
 d    1 1.00
                     1                   1

20 0
 s    3 1.00
             13.010701   0.033485484812989
             1.9622572    0.23472187088125
            0.44453796    0.81377028525955
 s    1 1.00
            0.12194962                   1
 p    1 1.00
                   0.8                   1

21 0
 s    3 1.00
             13.010701   0.033485484812989
             1.9622572    0.23472187088125
            0.44453796    0.81377028525955
 s    1 1.00
            0.12194962                   1
 p    1 1.00
                   0.8                   1

22 0
 s    3 1.00
             13.010701   0.033485484812989
             1.9622572    0.23472187088125
            0.44453796    0.81377028525955
 s    1 1.00
            0.12194962                   1
 p    1 1.00
                   0.8                   1

23 0
 s    3 1.00
             13.010701   0.033485484812989
             1.9622572    0.23472187088125
            0.44453796    0.81377028525955
 s    1 1.00
            0.12194962                   1
 p    1 1.00
                   0.8                   1

24 0
 s    3 1.00
             13.010701   0.033485484812989
             1.9622572    0.23472187088125
            0.44453796    0.81377028525955
 s    1 1.00
            0.12194962                   1
 p    1 1.00
                   0.8                   1

25 0
 s    3 1.00
             13.010701   0.033485484812989
             1.9622572    0.23472187088125
            0.44453796    0.81377028525955
 s    1 1.00
            0.12194962                   1
 p    1 1.00
                   0.8                   1

26 0
 s    3 1.00
             13.010701   0.033485484812989
             1.9622572    0.23472187088125
            0.44453796    0.81377028525955
 s    1 1.00
            0.12194962                   1
 p    1 1.00
                   0.8                   1

27 0
 s    3 1.00
             13.010701   0.033485484812989
             1.9622572    0.23472187088125
            0.44453796    0.81377028525955
 s    1 1.00
            0.12194962                   1
 p    1 1.00
                   0.8                   1

28 0
 s    3 1.00
             13.010701   0.033485484812989
             1.9622572    0.23472187088125
            0.44453796    0.81377028525955
 s    1 1.00
            0.12194962                   1
 p    1 1.00
                   0.8                   1

29 0
 s    3 1.00
             13.010701   0.033485484812989
             1.9622572    0.23472187088125
            0.44453796    0.81377028525955
 s    1 1.00
            0.12194962                   1
 p    1 1.00
                   0.8                   1

30 0
 s    3 1.00
             13.010701   0.033485484812989
             1.9622572    0.23472187088125
            0.44453796    0.81377028525955
 s    1 1.00
            0.12194962                   1
 p    1 1.00
                   0.8                   1

31 0
 s    3 1.00
             13.010701   0.033485484812989
             1.9622572    0.23472187088125
            0.44453796    0.81377028525955
 s    1 1.00
            0.12194962                   1
 p    1 1.00
                   0.8                   1

32 0
 s    3 1.00
             13.010701   0.033485484812989
             1.9622572    0.23472187088125
            0.44453796    0.81377028525955
 s    1 1.00
            0.12194962                   1
 p    1 1.00
                   0.8                   1

[5d]
[7f]
[9g]

[MO]
 Sym= A
 Ene=               0
 Spin= Alpha
 Occup=    1.00000
   1      0.77461227022399
   2    0.0053958124907618
   3    -0.0020647520489311
   4    0.0018515037773012
   5    -0.0022729556090015
   6    0.00014321175994454
   7    -1.5626455655478e-07
   8    -1.6961718985414e-09
   9    6.424784010325e-10
  10    -3.2164576273842e-06
  11    4.7627403979415e-09
  12    -5.0224797815697e-09
  13    3.2961037800778e-05
  14    -1.3011456865778e-08
  15    2.1933819233088e-08
  16    -0.0003858876996582
  17    1.3217507794497e-08
  18    -7.7248755980572e-08
  19    5.4623720398966e-06
  20    1.2385884416613e-09
  21    2.5443627698739e-10
  22    -9.4594475636577e-06
  23    2.9550757748728e-10
  24    -3.3199667960339e-05
  25    -4.342226212961e-09
  26    -2.1082226277528e-09
  27    5.7501090025571e-05
  28    1.5242789125862e-09
  29    0.00025380511017828
  30    -1.2850070487157e-08
  31    2.4158913771056e-08
  32    -0.00043964377744253
  33    -3.8141897435352e-08
  34    5.3582224331525e-05
  35    -5.0786119549471e-08
  36    -2.6786586895604e-08
  37    -9.2759084369149e-05
  38    7.0030247060541e-08
  39    -4.9799097194338e-07
  40    1.1075599830968e-05
  41    1.1926161906791e-06
  42    -3.8550638698705e-07
  43    7.6451807301172e-10
  44    -1.4300056552436e-05
  45    3.0754043673461e-07
  46     -0.62892664639741
  47    -0.0043787754954118
  48     0.001687603746566
  49    -0.0015361608839367
  50     0.001996510641693
  51    -0.00010970908452315
  52    -3.3775455377409e-07
  53    5.3725237983924e-10
  54    7.028239460986e-10
  55    -1.9685417955332e-06
  56    -1.5108776479311e-09
  57    1.9200843286183e-09
  58    3.3076606546624e-05
  59    5.802989495042e-09
  60    -1.4395175089813e-08
  61    -0.0004473945859877
  62    -3.0831497793775e-08
  63    6.7821728175485e-08
  64    -3.0060088071859e-06
  65    -8.4896262526953e-11
  66    -1.563824952554e-09
  67    5.2058618764147e-06
  68    -7.9803225191226e-11
  69    2.352643304232e-05
  70    3.1808856242267e-09
  71    6.0908234400928e-09
  72    -4.0748188649022e-05
  73    2.8128559388229e-11
  74    -0.00022772982242803
  75    -6.0184133943012e-08
  76    -1.9484058141682e-08
  77    0.00039448119331637
  78    8.8717797309816e-09
  79    -5.7508218007588e-05
  80    -2.4314917496275e-08
  81    -5.1313097420859e-08
  82    9.9668810923346e-05
  83    -1.1712024280008e-07
  84    7.5343773775561e-07
  85    1.1734067671619e-05
  86    -9.9535009624809e-07
  87    5.8396828423305e-07
  88    -8.2689576103714e-10
  89    -1.5148164984488e-05
  90    -2.5748656723319e-07
  91    -5.3905317999851e-07
  92    -8.6621699106677e-06
  93    3.7209241931381e-05
  94    1.0967370854216e-05
  95    3.9124531630335e-07
  96    -4.7492727589044e-07
  97    -0.00018991549441343
  98    1.8648928863463e-06
  99    -1.1628647162272e-05
 100    1.4018119831389e-06
 101    2.046945201298e-05
 102    5.4362659408812e-07
 103    -7.9426882473087e-07
 104    -3.6576391655132e-06
 105    -5.3936256944784e-07
 106    -8.6676427048002e-06
 107    3.724954720033e-05
 108    1.0953234869852e-05
 109    -6.0597836845915e-07
 110    -9.6910499860457e-08
 111    -0.00018982290794688
 112    -1.1031574178501e-05
 113    4.181175450942e-06
 114    7.5303523743189e-07
 115    -7.0798621361465e-06
 116    -9.7450302910843e-07
 117    -1.1705418080235e-06
 118    1.9552536326145e-05
 119    -5.3796477096321e-07
 120    -8.6493380559344e-06
 121    3.7164804059827e-05
 122    1.0951862072789e-05
 123    2.1828029082656e-07
 124    5.7894172493765e-07
 125    -0.00018980190454712
 126    9.1711115511337e-06
 127    7.4090653931133e-06
 128    -6.7778628830999e-08
 129    -1.3392745205192e-05
 130    4.4188383665009e-07
 131    -1.6380992647388e-06
 132    -1.591045399961e-05
 133    -3.9617993295119e-06
 134    6.7651923777727e-06
 135    3.7988100339444e-06
 136    8.1675806273417e-07
 137    2.7403155040453e-07
 138    -3.957840960249e-06
 139    6.6858440957938e-06
 140    3.7352808608596e-06
 141    -1.5315452446338e-07
 142    -8.3833213163126e-07
 143    -3.9608340250304e-06
 144    6.933501544146e-06
 145    3.7141690650149e-06
 146    -6.2252456236872e-07
 147    5.9421113197989e-07
 148    -5.6218756694749e-06
 149    -0.00010451777731656
 150    0.00043530718577693
 151    9.9137297714747e-06
 152    1.4213243754053e-05
 153    -7.3124445008355e-06
 154    4.1975303811833e-05
 155    0.00021517361613437
 156    -0.00012736796668504
 157    1.440405667307e-07
 158    -2.4455640435914e-06
 159    -4.8133337337998e-06
 160    -1.0633968212383e-05
 161    5.0733090628909e-06
 162     1.39810043589e-05
 163    3.4260919642269e-05
 164    -7.5599293776966e-06
 165    -1.0553173254214e-06
 166    -1.1802330564414e-06
 167    -4.7743161170998e-05
 168    -4.3581802082116e-06
 169    1.1889678623874e-06
 170    -1.574253095082e-05
 171    -3.0839885947074e-06
 172    -4.4251462260709e-05
 173    1.568674902783e-05
 174    -1.7257930023641e-06
 175    -6.8213494916498e-06
 176    1.0642478491256e-05
 177    -5.6215564929349e-06
 178    -0.00010450789900676
 179    0.00043523862724261
 180    9.9119093141094e-06
 181    -1.3438084688738e-05
 182    -8.652211236613e-06
 183    4.1957020580534e-05
 184    -0.00021788799026574
 185    -0.00012263167622971
 186    3.2797961773148e-06
 187    -3.1702632199636e-06
 188    6.9016017188745e-06
 189    -8.8250422723523e-06
 190    -4.6531181584486e-06
 191    -5.6210997079674e-06
 192    -0.00010450448838265
 193    0.0004352592820062
 194    9.9103426425232e-06
 195    -7.7463188408524e-07
 196    1.5961650476106e-05
 197    4.1957672446378e-05
 198    2.7121632935953e-06
 199    0.00025002403036607
 200    1.0499856713858e-05
 201    5.6145363989655e-06
 202    -2.0904404227002e-06
 203    -4.656331536097e-06
 204    -4.170823115912e-07
 205    -4.4255025928549e-05
 206    1.5738633081731e-05
 207    -1.719936826493e-06
 208    -5.8058673765677e-06
 209    -1.1226240138093e-05
 210    -4.7745249395478e-05
 211    -4.3745912786796e-06
 212    1.187317255262e-06
 213    5.1989747489176e-06
 214    1.5176950787516e-05
 215    4.6795974366067e-06
 216    8.5616793356501e-05
 217    -0.00034756071860267
 218    8.5573999595699e-06
 219    -1.1767789342831e-05
 220    6.4467026326283e-06
 221    3.4022622915303e-05
 222    -0.00017342111738813
 223    0.00011048209777528
 224    -5.2716458023373e-07
 225    -1.3911574530479e-06
 226     3.86288365733e-06
 227    9.0995882456619e-06
 228    4.5622020928991e-06
 229    4.679184212375e-06
 230    8.5613817014821e-05
 231    -0.00034757533973942
 232    8.5560385382629e-06
 233    1.1467104145085e-05
 234    6.9671368574679e-06
 235    3.3995556121906e-05
 236    0.00018238717016599
 237    9.4941301526628e-05
 238    -2.9494018065536e-06
 239    -3.2546929395616e-06
 240    -5.4752437411541e-06
 241    7.7024271564065e-06
 242    -3.4856152385072e-06
 243    4.6790188573355e-06
 244    8.5613815672115e-05
 245    -0.00034760077255126
 246    8.5540758907918e-06
 247    2.9914279018041e-07
 248    -1.3413533650652e-05
 249    3.4005108058962e-05
 250    -8.9862480396861e-06
 251    -0.00020546030912588
 252    -8.741198204354e-06
 253    4.6478209781186e-06
 254    1.6140683159977e-06
 255    4.3595208473235e-06
 256    -1.0768406669632e-06
 257    1.3982390106648e-05
 258    3.4288057222197e-05
 259    -7.5626701064316e-06
 260    -4.9499821115465e-07
 261    1.5001969267404e-06
 262    -4.4249065201694e-05
 263    1.5769120117377e-05
 264    -1.7170070846103e-06
 265    1.2625577414637e-05
 266    5.866777820663e-07
 267    1.3982219359361e-05
 268    3.4281939303076e-05
 269    -7.5612604359864e-06
 270    1.5489810453011e-06
 271    -3.2114220294094e-07
 272    -4.7740489324511e-05
 273    -4.3249200496709e-06
 274    1.1922608936422e-06
 275    1.0540286165476e-05
 276    -1.2090648913891e-05
 277    -1.3112587288037e-05
 278    -2.8085451296262e-05
 279    -5.9766890126518e-06
 280    7.0085513673736e-08
 281    8.7313424065659e-07
 282    4.1849462910155e-05
 283    5.312374325201e-06
 284    -5.5921757836075e-07
 285    1.3724688146814e-05
 286    2.2337294310081e-06
 287    3.5339748080001e-05
 288    -2.5541931915101e-05
 289    -8.4146343178448e-07
 290    6.3149552710167e-06
 291    -7.8966253046056e-06
 292    -1.3119010917941e-05
 293    -2.8035619331608e-05
 294    -5.9742810212678e-06
 295    7.2084106874228e-07
 296    -4.9902939719022e-07
 297    4.1852050286593e-05
 298    5.3778682773811e-06
 299    -5.5861734890732e-07
 300    -4.9283099003651e-06
 301    -1.3008742466629e-05
 302    3.5332765709762e-05
 303    -2.5455690767928e-05
 304    -8.4296918221818e-07
 305    -9.9957427032999e-06
 306    -1.515417403136e-06
 307    -1.3122145797525e-05
 308    -2.8099039382867e-05
 309    -5.9766955516221e-06
 310    -7.9276339820309e-07
 311    -3.7756796026363e-07
 312    4.1857825627027e-05
 313    5.3532954315472e-06
 314    -5.5690325960486e-07
 315    -8.8022124973281e-06
 316    1.0769918400579e-05
 317    3.5338840959702e-05
 318    -2.5527148289217e-05
 319    -8.3890474150544e-07
 320    3.6853425223425e-06
 321    9.4169049755244e-06
 Sym= A
 Ene=               1
 Spin= Alpha
 Occup=    1.00000
   1     -0.62892956323072
   2    -0.0043918046200544
   3    0.0016219935678545
   4    -0.001343203583697
   5    0.0011100241174272
   6    -0.00014818261747221
   7    -8.9987745313998e-07
   8    1.4623713319516e-09
   9    -4.6170142367597e-10
  10    5.7433261484918e-06
  11    -4.1503763617766e-09
  12    3.9338985440541e-09
  13    3.9806201341691e-06
  14    1.0220800980854e-08
  15    -1.78509826093e-08
  16    -0.00033952486699211
  17    -1.6370098657206e-08
  18    4.6679925487561e-08
  19    -1.1391484049721e-05
  20    -4.0682518275258e-10
  21    -2.4838163702729e-10
  22    1.9728915894878e-05
  23    1.8297131404879e-09
  24    4.3649503157867e-05
  25    -4.5547783724443e-10
  26    2.4157161313001e-10
  27    -7.5600377795266e-05
  28    -1.0203173181113e-08
  29    -0.00010060115904757
  30    1.1847425897781e-08
  31    7.946315007459e-09
  32    0.00017426368586429
  33    5.3825031651906e-08
  34    2.4817579038154e-05
  35    -1.8100915086431e-07
  36    -3.3748182677774e-08
  37    -4.318548187013e-05
  38    -7.8259905778711e-08
  39    -1.2963030005319e-06
  40    4.3513331730983e-06
  41    -8.364021741379e-07
  42    -1.0058294906321e-06
  43    1.716578366939e-09
  44    -5.6169542428653e-06
  45    -2.1562513043515e-07
  46     -0.77461463841034
  47    -0.0054063909203632
  48    0.0020114829216163
  49    -0.0016948398952441
  50    0.0015531904122793
  51    -0.00017442776683135
  52    8.4851583091176e-07
  53    9.0070792154237e-10
  54    6.0415467320549e-10
  55    -6.2813785239055e-06
  56    -2.8236406106587e-09
  57    3.675457735119e-09
  58    2.8737332876199e-06
  59    4.5756141408431e-09
  60    -1.9829687808429e-08
  61    0.00025302994583822
  62    1.5702364113976e-08
  63    6.2853615247849e-08
  64    -1.2270583035861e-05
  65    4.9138687436563e-10
  66    -8.076916970033e-10
  67    2.1251080704113e-05
  68    -2.0479739242317e-09
  69    4.9538191983974e-05
  70    2.6486527848386e-10
  71    2.7644671959741e-09
  72    -8.5798068818256e-05
  73    1.1554265717487e-08
  74    -0.00015058958294821
  75    -1.4577824554143e-08
  76    -1.1084676550045e-08
  77     0.000260841118471
  78    -7.8395473126238e-08
  79    1.3309029612573e-05
  80    1.3190078087932e-07
  81    -7.6006760403971e-08
  82    -2.3202542500762e-05
  83    1.033666648546e-07
  84    -1.1663501201639e-06
  85    -1.9837483105979e-06
  86    -1.0636024334807e-06
  87    -9.0518392357995e-07
  88    -1.0169865666933e-09
  89    2.5603171561956e-06
  90    -2.7399732808689e-07
  91    5.1917167852471e-06
  92    8.3456237250033e-05
  93    -0.00035860849831051
  94    1.1383491483445e-06
  95    -3.7576411386328e-06
  96    4.5812685082386e-06
  97    -1.9711656745879e-05
  98    -1.8029523763031e-05
  99    0.00011208311188004
 100    -1.3512835875161e-05
 101    2.124379642381e-06
 102    -5.2448928834128e-06
 103    7.6495800513081e-06
 104    -3.7985281976747e-07
 105    5.189554452811e-06
 106    8.3411846239701e-05
 107    -0.00035841126994119
 108    1.1361915397877e-06
 109    5.8612779673801e-06
 110    9.5964186387205e-07
 111    -1.9716792586467e-05
 112    0.00010610253374826
 113    -4.0585697238462e-05
 114    -7.1906790475327e-06
 115    -7.3148465186952e-07
 116    9.4246828532669e-06
 117    1.1281483962623e-05
 118    2.0287705034607e-06
 119    5.1904541926142e-06
 120    8.3408807526036e-05
 121    -0.00035832691880278
 122    1.1373502300728e-06
 123    -2.0985962434759e-06
 124    -5.5574432928404e-06
 125    -1.9691163099613e-05
 126    -8.8205171222303e-05
 127    -7.1560166297119e-05
 128    6.3309342262453e-07
 129    -1.3893012865679e-06
 130    -4.2028557408761e-06
 131    1.5794295988634e-05
 132    -1.6542745610277e-06
 133    3.821253594014e-05
 134    -6.5194135173573e-05
 135    3.9362266109004e-07
 136    -7.8712017125167e-06
 137    -2.6386419083305e-06
 138    3.8139027454429e-05
 139    -6.5649043885661e-05