[Molden Format]
made by pyscf v[2.7.0]
[Atoms] (AU)
Cr   1   24    -2.49591247080304     0.00009448630623    -0.00013228082872
Cr   2   24     2.49589357354180     0.00009448630623    -0.00013228082872
O   3   8     0.00000000000000    -0.31337328323662     2.74894679888230
O   4   8     0.00000000000000     2.53746754828223    -1.10307093343112
O   5   8     0.00000000000000    -2.22388639517190    -1.64597035175741
H   6   1     0.00003779452249     0.94728191172197     4.08167614823181
H   7   1     0.00105824662976     3.05888078057222    -2.86195242113129
H   8   1    -0.00083147949481    -4.00771226771634    -1.21722928861609
N   9   7    -5.00739628487250    -2.73195816102246     1.34438895953808
H   10   1    -4.13275544537881    -4.12334460927847     2.35157518940876
H   11   1    -5.77114799537672    -3.48503291892289    -0.25713503376957
H   12   1    -6.36321808746420    -1.89940152232283     2.43247436480139
N   13   7    -5.00739628487250     2.53038107531511     1.69376152544767
N   14   7    -5.00739628487250     0.20176605831981    -3.03824497129197
H   15   1    -6.36321808746420    -1.15681474441375    -2.86125322246521
H   16   1    -5.77114799537672     1.51994451651017     3.14669635358076
N   17   7     5.00739628487250    -2.73193926376122     1.34438895953808
N   18   7     5.00737738761126     2.53039997257635     1.69376152544767
N   19   7     5.00739628487250     0.20178495558106    -3.03824497129197
H   20   1    -4.13277434264005     4.09830573812799     2.39513337657999
H   21   1    -6.36321808746420     3.05638634208779     0.42870326861883
H   22   1    -4.13275544537881     0.02520894650170    -4.74680305229498
H   23   1    -5.77116689263796     1.96527737502517    -2.88965580611742
H   24   1     4.13275544537881    -4.12332571201723     2.35157518940876
H   25   1     5.77114799537672    -3.48501402166164    -0.25715393103081
H   26   1     6.36321808746420    -1.89936372780034     2.43245546754015
H   27   1     4.13273654811756     4.09832463538923     2.39513337657999
H   28   1     5.77114799537672     1.51996341377142     3.14669635358076
H   29   1     6.36319919020295     3.05640523934904     0.42868437135758
H   30   1     4.13275544537881     0.02522784376294    -4.74680305229498
H   31   1     5.77114799537672     1.96529627228642    -2.88965580611742
H   32   1     6.36321808746420    -1.15679584715250    -2.86125322246521
[GTO]
1 0
 s    8 1.00
          254477.80704  0.00024290477637401
          38131.797054  0.0018843523608945
          8675.2930607  0.0098009584389183
          2455.0099848    0.03982500865256
          799.16217787    0.12940543734993
          286.90021489      0.306290018085
          111.25413232    0.43462834975685
          43.864152636    0.22469562869153
 s    4 1.00
          279.32669173  -0.024363357905718
          86.274732376   -0.11511495393603
          13.555756113    0.55092266280841
          5.6978112751     0.5361135469137
 s    2 1.00
          8.5636582615   -0.37123017689407
          1.3988296768      1.168116945815
 s    1 1.00
         0.57288171116                   1
 s    1 1.00
        0.090096171317                   1
 s    1 1.00
        0.034125885135                   1
 p    6 1.00
          1306.4398864  0.0028292800654831
          309.25311441   0.022776629200026
          98.996273963    0.10564561899224
          36.756916451    0.29949944921292
          14.566657077    0.47706245356687
          5.8739937432    0.27654234376953
 p    3 1.00
          22.890999695  -0.019412106076979
          3.0855001822    0.38618875824718
          1.2132329118    0.67623908895117
 p    1 1.00
         0.44931680699                   1
 p    1 1.00
              0.120675                   1
 d    4 1.00
          43.720074476   0.022093259256368
          12.391242652    0.12801438774984
          4.2639442006    0.38652910276341
           1.552522179    0.64103301437156
 d    1 1.00
         0.53761929485                   1
 d    1 1.00
         0.16493173074                   1
 d    1 1.00
                 0.051                   1
 f    1 1.00
                 1.147                   1

2 0
 s    8 1.00
          254477.80704  0.00024290477637401
          38131.797054  0.0018843523608945
          8675.2930607  0.0098009584389183
          2455.0099848    0.03982500865256
          799.16217787    0.12940543734993
          286.90021489      0.306290018085
          111.25413232    0.43462834975685
          43.864152636    0.22469562869153
 s    4 1.00
          279.32669173  -0.024363357905718
          86.274732376   -0.11511495393603
          13.555756113    0.55092266280841
          5.6978112751     0.5361135469137
 s    2 1.00
          8.5636582615   -0.37123017689407
          1.3988296768      1.168116945815
 s    1 1.00
         0.57288171116                   1
 s    1 1.00
        0.090096171317                   1
 s    1 1.00
        0.034125885135                   1
 p    6 1.00
          1306.4398864  0.0028292800654831
          309.25311441   0.022776629200026
          98.996273963    0.10564561899224
          36.756916451    0.29949944921292
          14.566657077    0.47706245356687
          5.8739937432    0.27654234376953
 p    3 1.00
          22.890999695  -0.019412106076979
          3.0855001822    0.38618875824718
          1.2132329118    0.67623908895117
 p    1 1.00
         0.44931680699                   1
 p    1 1.00
              0.120675                   1
 d    4 1.00
          43.720074476   0.022093259256368
          12.391242652    0.12801438774984
          4.2639442006    0.38652910276341
           1.552522179    0.64103301437156
 d    1 1.00
         0.53761929485                   1
 d    1 1.00
         0.16493173074                   1
 d    1 1.00
                 0.051                   1
 f    1 1.00
                 1.147                   1

3 0
 s    5 1.00
          2266.1767785  -0.0053893503921743
          340.87010191   -0.04023472138896
          77.363135167   -0.18008184205526
           21.47964494   -0.46828857657651
          6.6589433124   -0.44692617160187
 s    1 1.00
         0.80975975668                   1
 s    1 1.00
         0.25530772234                   1
 p    3 1.00
          17.721504317   0.062630248763161
           3.863550544    0.33331138482352
          1.0480920883    0.74148638308122
 p    1 1.00
         0.27641544411                   1
 d    1 1.00
                   1.2                   1

4 0
 s    5 1.00
          2266.1767785  -0.0053893503921743
          340.87010191   -0.04023472138896
          77.363135167   -0.18008184205526
           21.47964494   -0.46828857657651
          6.6589433124   -0.44692617160187
 s    1 1.00
         0.80975975668                   1
 s    1 1.00
         0.25530772234                   1
 p    3 1.00
          17.721504317   0.062630248763161
           3.863550544    0.33331138482352
          1.0480920883    0.74148638308122
 p    1 1.00
         0.27641544411                   1
 d    1 1.00
                   1.2                   1

5 0
 s    5 1.00
          2266.1767785  -0.0053893503921743
          340.87010191   -0.04023472138896
          77.363135167   -0.18008184205526
           21.47964494   -0.46828857657651
          6.6589433124   -0.44692617160187
 s    1 1.00
         0.80975975668                   1
 s    1 1.00
         0.25530772234                   1
 p    3 1.00
          17.721504317   0.062630248763161
           3.863550544    0.33331138482352
          1.0480920883    0.74148638308122
 p    1 1.00
         0.27641544411                   1
 d    1 1.00
                   1.2                   1

6 0
 s    3 1.00
             13.010701   0.033485484812989
             1.9622572    0.23472187088125
            0.44453796    0.81377028525955
 s    1 1.00
            0.12194962                   1
 p    1 1.00
                   0.8                   1

7 0
 s    3 1.00
             13.010701   0.033485484812989
             1.9622572    0.23472187088125
            0.44453796    0.81377028525955
 s    1 1.00
            0.12194962                   1
 p    1 1.00
                   0.8                   1

8 0
 s    3 1.00
             13.010701   0.033485484812989
             1.9622572    0.23472187088125
            0.44453796    0.81377028525955
 s    1 1.00
            0.12194962                   1
 p    1 1.00
                   0.8                   1

9 0
 s    5 1.00
          1712.8415853  -0.0054477995804909
          257.64812677  -0.040627174632423
          58.458245853   -0.18111962250584
          16.198367905   -0.46843975563173
          5.0052600809   -0.44616846289231
 s    1 1.00
         0.58731856571                   1
 s    1 1.00
         0.18764592253                   1
 p    3 1.00
          13.571470233  -0.058848116969522
          2.9257372874   -0.32024624762471
         0.79927750754   -0.75328226520436
 p    1 1.00
         0.21954348034                   1
 d    1 1.00
                     1                   1

10 0
 s    3 1.00
             13.010701   0.033485484812989
             1.9622572    0.23472187088125
            0.44453796    0.81377028525955
 s    1 1.00
            0.12194962                   1
 p    1 1.00
                   0.8                   1

11 0
 s    3 1.00
             13.010701   0.033485484812989
             1.9622572    0.23472187088125
            0.44453796    0.81377028525955
 s    1 1.00
            0.12194962                   1
 p    1 1.00
                   0.8                   1

12 0
 s    3 1.00
             13.010701   0.033485484812989
             1.9622572    0.23472187088125
            0.44453796    0.81377028525955
 s    1 1.00
            0.12194962                   1
 p    1 1.00
                   0.8                   1

13 0
 s    5 1.00
          1712.8415853  -0.0054477995804909
          257.64812677  -0.040627174632423
          58.458245853   -0.18111962250584
          16.198367905   -0.46843975563173
          5.0052600809   -0.44616846289231
 s    1 1.00
         0.58731856571                   1
 s    1 1.00
         0.18764592253                   1
 p    3 1.00
          13.571470233  -0.058848116969522
          2.9257372874   -0.32024624762471
         0.79927750754   -0.75328226520436
 p    1 1.00
         0.21954348034                   1
 d    1 1.00
                     1                   1

14 0
 s    5 1.00
          1712.8415853  -0.0054477995804909
          257.64812677  -0.040627174632423
          58.458245853   -0.18111962250584
          16.198367905   -0.46843975563173
          5.0052600809   -0.44616846289231
 s    1 1.00
         0.58731856571                   1
 s    1 1.00
         0.18764592253                   1
 p    3 1.00
          13.571470233  -0.058848116969522
          2.9257372874   -0.32024624762471
         0.79927750754   -0.75328226520436
 p    1 1.00
         0.21954348034                   1
 d    1 1.00
                     1                   1

15 0
 s    3 1.00
             13.010701   0.033485484812989
             1.9622572    0.23472187088125
            0.44453796    0.81377028525955
 s    1 1.00
            0.12194962                   1
 p    1 1.00
                   0.8                   1

16 0
 s    3 1.00
             13.010701   0.033485484812989
             1.9622572    0.23472187088125
            0.44453796    0.81377028525955
 s    1 1.00
            0.12194962                   1
 p    1 1.00
                   0.8                   1

17 0
 s    5 1.00
          1712.8415853  -0.0054477995804909
          257.64812677  -0.040627174632423
          58.458245853   -0.18111962250584
          16.198367905   -0.46843975563173
          5.0052600809   -0.44616846289231
 s    1 1.00
         0.58731856571                   1
 s    1 1.00
         0.18764592253                   1
 p    3 1.00
          13.571470233  -0.058848116969522
          2.9257372874   -0.32024624762471
         0.79927750754   -0.75328226520436
 p    1 1.00
         0.21954348034                   1
 d    1 1.00
                     1                   1

18 0
 s    5 1.00
          1712.8415853  -0.0054477995804909
          257.64812677  -0.040627174632423
          58.458245853   -0.18111962250584
          16.198367905   -0.46843975563173
          5.0052600809   -0.44616846289231
 s    1 1.00
         0.58731856571                   1
 s    1 1.00
         0.18764592253                   1
 p    3 1.00
          13.571470233  -0.058848116969522
          2.9257372874   -0.32024624762471
         0.79927750754   -0.75328226520436
 p    1 1.00
         0.21954348034                   1
 d    1 1.00
                     1                   1

19 0
 s    5 1.00
          1712.8415853  -0.0054477995804909
          257.64812677  -0.040627174632423
          58.458245853   -0.18111962250584
          16.198367905   -0.46843975563173
          5.0052600809   -0.44616846289231
 s    1 1.00
         0.58731856571                   1
 s    1 1.00
         0.18764592253                   1
 p    3 1.00
          13.571470233  -0.058848116969522
          2.9257372874   -0.32024624762471
         0.79927750754   -0.75328226520436
 p    1 1.00
         0.21954348034                   1
 d    1 1.00
                     1                   1

20 0
 s    3 1.00
             13.010701   0.033485484812989
             1.9622572    0.23472187088125
            0.44453796    0.81377028525955
 s    1 1.00
            0.12194962                   1
 p    1 1.00
                   0.8                   1

21 0
 s    3 1.00
             13.010701   0.033485484812989
             1.9622572    0.23472187088125
            0.44453796    0.81377028525955
 s    1 1.00
            0.12194962                   1
 p    1 1.00
                   0.8                   1

22 0
 s    3 1.00
             13.010701   0.033485484812989
             1.9622572    0.23472187088125
            0.44453796    0.81377028525955
 s    1 1.00
            0.12194962                   1
 p    1 1.00
                   0.8                   1

23 0
 s    3 1.00
             13.010701   0.033485484812989
             1.9622572    0.23472187088125
            0.44453796    0.81377028525955
 s    1 1.00
            0.12194962                   1
 p    1 1.00
                   0.8                   1

24 0
 s    3 1.00
             13.010701   0.033485484812989
             1.9622572    0.23472187088125
            0.44453796    0.81377028525955
 s    1 1.00
            0.12194962                   1
 p    1 1.00
                   0.8                   1

25 0
 s    3 1.00
             13.010701   0.033485484812989
             1.9622572    0.23472187088125
            0.44453796    0.81377028525955
 s    1 1.00
            0.12194962                   1
 p    1 1.00
                   0.8                   1

26 0
 s    3 1.00
             13.010701   0.033485484812989
             1.9622572    0.23472187088125
            0.44453796    0.81377028525955
 s    1 1.00
            0.12194962                   1
 p    1 1.00
                   0.8                   1

27 0
 s    3 1.00
             13.010701   0.033485484812989
             1.9622572    0.23472187088125
            0.44453796    0.81377028525955
 s    1 1.00
            0.12194962                   1
 p    1 1.00
                   0.8                   1

28 0
 s    3 1.00
             13.010701   0.033485484812989
             1.9622572    0.23472187088125
            0.44453796    0.81377028525955
 s    1 1.00
            0.12194962                   1
 p    1 1.00
                   0.8                   1

29 0
 s    3 1.00
             13.010701   0.033485484812989
             1.9622572    0.23472187088125
            0.44453796    0.81377028525955
 s    1 1.00
            0.12194962                   1
 p    1 1.00
                   0.8                   1

30 0
 s    3 1.00
             13.010701   0.033485484812989
             1.9622572    0.23472187088125
            0.44453796    0.81377028525955
 s    1 1.00
            0.12194962                   1
 p    1 1.00
                   0.8                   1

31 0
 s    3 1.00
             13.010701   0.033485484812989
             1.9622572    0.23472187088125
            0.44453796    0.81377028525955
 s    1 1.00
            0.12194962                   1
 p    1 1.00
                   0.8                   1

32 0
 s    3 1.00
             13.010701   0.033485484812989
             1.9622572    0.23472187088125
            0.44453796    0.81377028525955
 s    1 1.00
            0.12194962                   1
 p    1 1.00
                   0.8                   1

[5d]
[7f]
[9g]

[MO]
 Sym= A
 Ene=    -221.0645976
 Spin= Alpha
 Occup=    2.00000
   1     -0.94534711697615
   2    -0.0066510777053224
   3    0.0026138916765126
   4    -0.0021232170068621
   5    0.0025034216491804
   6    -0.00018447589829964
   7    1.202286141107e-06
   8    3.1165329251294e-09
   9    -2.32244005708e-10
  10    1.1301534003525e-06
  11    -9.127108300207e-09
  12    4.4749086672609e-09
  13    -3.0210746867285e-05
  14    1.6434806432667e-08
  15    -2.6525289928593e-08
  16    0.00024127407663389
  17    -2.1991662069622e-08
  18    8.6674584576788e-08
  19    -9.2287329241546e-06
  20    -1.1782713430515e-09
  21    -3.7698782201245e-10
  22    1.5982424392116e-05
  23    4.4008737466014e-10
  24    4.6091364272499e-05
  25    3.7129096384174e-09
  26    2.3099935551274e-09
  27    -7.983009544777e-05
  28    -5.2915783247793e-09
  29    -0.00027172308386704
  30    1.6065516688632e-08
  31    -1.9625397133068e-08
  32    0.00047068347371672
  33    5.4271970066811e-08
  34    -4.1689538885577e-05
  35    -1.6721672021256e-08
  36    1.5100123445452e-08
  37    7.2094103182866e-05
  38    -9.6456550891219e-08
  39    2.1342087215596e-08
  40    -8.8615181975436e-06
  41    -1.3832764721767e-06
  42    1.5747461188924e-08
  43    -2.9793020129649e-10
  44    1.1441863835133e-05
  45    -3.5670952126146e-07
  46      0.31915660774667
  47    0.0022384248778953
  48    -0.00091773850814055
  49    0.00082063152016194
  50    -0.0013221116918476
  51    4.1915547008743e-05
  52    1.0668108067198e-06
  53    -2.677223833073e-10
  54    -9.8537868747688e-10
  55    -1.6752434763584e-06
  56    6.6892114726895e-10
  57    1.0824648073963e-09
  58    -3.0049842632867e-05
  59    -3.7169914387133e-09
  60    6.8511457054634e-09
  61    0.00050477520757834
  62    3.2746135336299e-08
  63    -4.1802676114437e-08
  64    -7.5139112854078e-07
  65    2.7957457263043e-10
  66    1.1449355601147e-09
  67    1.300993062431e-06
  68    -6.4400654535358e-10
  69    -4.2780466110392e-06
  70    -3.1254692077444e-09
  71    -4.5848649795968e-09
  72    7.4107513977057e-06
  73    3.9423339296471e-09
  74    0.00016033981130153
  75    5.1201697768216e-08
  76    1.4270635270666e-08
  77    -0.00027775137777464
  78    -3.2879405520238e-08
  79    5.8425656993737e-05
  80    6.6949126913778e-08
  81    1.9558785477384e-08
  82    -0.00010130584170931
  83    1.4182617562656e-07
  84    -1.087750478749e-06
  85    -1.1698964198549e-05
  86    5.4132864278033e-07
  87    -8.4352247578536e-07
  88    3.7733174727098e-10
  89    1.5102758556798e-05
  90    1.4036283963233e-07
  91    1.6680000404293e-06
  92    3.5902886547705e-05
  93    -0.00016059526220707
  94    -4.4772351233216e-06
  95    -1.9406589629822e-06
  96    3.8710740195812e-06
  97    0.00017480861306801
  98    -8.3385256631015e-06
  99    5.1117806433693e-05
 100    -6.029743685416e-06
 101    -1.841556543799e-05
 102    -2.2936044464289e-06
 103    3.4084689729256e-06
 104    3.3892393631712e-06
 105    1.667311634704e-06
 106    3.5891736339727e-05
 107    -0.00016056473571497
 108    -4.4640548815788e-06
 109    4.3268979203885e-06
 110    -2.6016693789544e-07
 111    0.00017472099382821
 112    4.8471470715027e-05
 113    -1.837442450912e-05
 114    -3.1770328505588e-06
 115    6.284962718854e-06
 116    4.1818412465978e-06
 117    5.0509511581176e-06
 118    -1.7640101771927e-05
 119    1.6670927393072e-06
 120    3.5876295914853e-05
 121    -0.00016045722221522
 122    -4.4630013775255e-06
 123    -2.3891406186291e-06
 124    -3.6221161464846e-06
 125    0.00017470981214285
 126    -4.0185733066684e-05
 127    -3.2727767821653e-05
 128    2.5348107990709e-07
 129    1.2134812482977e-05
 130    -1.9065185321525e-06
 131    7.023960526342e-06
 132    1.4263758332163e-05
 133    1.7530561197908e-05
 134    -2.886993843458e-05
 135    -3.1989512610948e-06
 136    -3.5731886204213e-06
 137    -1.1728910825201e-06
 138    1.7502216902932e-05
 139    -2.8954077524721e-05
 140    -3.1488106543441e-06
 141    7.8429647047999e-07
 142    3.6538634727478e-06
 143    1.749182495745e-05
 144    -2.9197555380047e-05
 145    -3.1169805950272e-06
 146    2.7413726141943e-06
 147    -2.5493424568066e-06
 148    5.6371175361539e-06
 149    0.0001239832125581
 150    -0.00054189124653793
 151    -7.9204673729295e-06
 152    -1.3741868284219e-05
 153    6.7041647068694e-06
 154    -5.3904135969669e-05
 155    -0.00026637417676426
 156    0.00014404232817266
 157    5.1625984560323e-07
 158    3.9767252460221e-06
 159    5.9583731525258e-06
 160    1.2171509985682e-05
 161    -5.4229201833276e-06
 162    -1.3579697656681e-05
 163    -4.0925233351184e-05
 164    9.3430189158596e-06
 165    2.5665148042862e-06
 166    1.5709694368702e-06
 167      5.3370108988e-05
 168    2.507077391659e-06
 169    -4.1105799035952e-06
 170    1.7468608929978e-05
 171    4.3056862540607e-06
 172    5.5511719424457e-05
 173    2.5686404768839e-06
 174    2.9890492664342e-06
 175    6.8565859411799e-06
 176    -1.4197206415851e-05
 177    5.6370571617861e-06
 178    0.00012397210302855
 179    -0.00054179930267791
 180    -7.9200454852889e-06
 181    1.2675606655454e-05
 182    8.5485025435695e-06
 183    -5.3887490464087e-05
 184    0.00025791782385674
 185    0.00015863347608352
 186    -3.5014866665075e-06
 187    2.7066272172473e-06
 188    -8.6356860297893e-06
 189    9.8530195180044e-06
 190    6.1529546324269e-06
 191    5.6361808961802e-06
 192    0.00012396914959949
 193    -0.00054185093120828
 194    -7.9171180046754e-06
 195    1.0655570314574e-06
 196    -1.5248745648329e-05
 197    -5.3880644682467e-05
 198    8.4591939505737e-06
 199    -0.00030269381488548
 200    -1.2439769698701e-05
 201    -6.6815183943292e-06
 202    2.6794589392046e-06
 203    4.6922478580459e-06
 204    -7.3462349450343e-07
 205    5.5513135571692e-05
 206    2.5688613929765e-06
 207    2.9856490447894e-06
 208    8.8681175999413e-06
 209    1.3031714306486e-05
 210    5.3372097047537e-05
 211    2.4979938395674e-06
 212    -4.108931225617e-06
 213    -5.0047773657194e-06
 214    -1.7280569357226e-05
 215    -2.3345159392498e-06
 216    -4.4422700966422e-05
 217    0.00016436901251042
 218    -4.4878517407423e-06
 219    5.4380992178326e-06
 220    -3.9180888183074e-06
 221    -1.7836416604066e-05
 222    8.5811459073769e-05
 223    -7.095715658874e-05
 224    1.1239960328436e-06
 225    -5.3742729944797e-07
 226    -1.8537980893553e-06
 227    -5.5692702678476e-06
 228    -3.2383315286862e-06
 229    -2.3340099361593e-06
 230    -4.4421887054415e-05
 231    0.00016440633358581
 232    -4.4858499059912e-06
 233    -6.1132222420426e-06
 234    -2.749349227406e-06
 235    -1.7809249105222e-05
 236    -0.00010437078651963
 237    -3.8837986998673e-05
 238    2.0888971181561e-06
 239    3.0734975507026e-06
 240    2.4938426994917e-06
 241    -5.0131371970558e-06
 242    1.1544832932237e-06
 243    -2.3341638566146e-06
 244    -4.4423816689752e-05
 245    0.00016440912660632
 246    -4.4849462525173e-06
 247    6.7574883494819e-07
 248    6.6683930847817e-06
 249    -1.7827296281469e-05
 250    1.8571650223339e-05
 251    0.00010983493121049
 252    4.8664637096183e-06
 253    -2.5384416942103e-06
 254    -6.4194534622341e-07
 255    -3.4105777726265e-06
 256    2.0858340787311e-06
 257    -1.3578109009991e-05
 258    -4.095125567421e-05
 259    9.3460133403331e-06
 260    7.7629055957135e-08
 261    -3.0036067911739e-06
 262    5.5507192009279e-05
 263    2.4774204470401e-06
 264    2.9788382106268e-06
 265    -1.5719469452517e-05
 266    1.1597233676778e-06
 267    -1.3580685345138e-05
 268    -4.0915318860628e-05
 269    9.3421026993583e-06
 270    -2.6440743518188e-06
 271    1.4353609101582e-06
 272    5.3366060487098e-05
 273    2.4722649912387e-06
 274    -4.1150946409026e-06
 275    -1.2461292575795e-05
 276    1.2974653051922e-05
 277    1.008287576899e-05
 278    1.4466806520778e-05
 279    2.6336758072852e-06
 280    1.6124657419543e-06
 281    -2.5365651683052e-07
 282    -2.7760559989387e-05
 283    -6.5022188552551e-06
 284    3.4410830922219e-06
 285    -8.8876611249187e-06
 286    -6.0085456209181e-07
 287    -1.6786008651394e-05
 288    3.9439495309389e-05
 289    -7.4781029046257e-07
 290    -4.7723191621321e-06
 291    2.4390634514587e-06
 292    1.0093037483723e-05
 293    1.4436372012564e-05
 294    2.6313822561771e-06
 295    -1.0267348927966e-06
 296    -1.2673816525923e-06
 297    -2.7764724429976e-05
 298    -6.5820093902236e-06
 299    3.4400806178987e-06
 300    3.9229843964781e-06
 301    8.0044347328356e-06
 302    -1.678173883401e-05
 303    3.9343774604433e-05
 304    -7.4471596075773e-07
 305    4.5000416271262e-06
 306    2.9075839952683e-06
 307    1.0091460375178e-05
 308    1.4508212720689e-05
 309    2.6356168542069e-06
 310    -5.8627864152934e-07
 311    1.5258691492402e-06
 312    -2.7769312766524e-05
 313    -6.5600238274335e-06
 314    3.4413928851109e-06
 315    4.9701913463459e-06
 316    -7.3968735822697e-06
 317    -1.6788656173701e-05
 318    3.9466635658181e-05
 319    -7.5175540267466e-07
 320    2.7113143247177e-07
 321    -5.3548887195563e-06
 Sym= A
 Ene=    -221.0645941
 Spin= Alpha
 Occup=    2.00000
   1      0.31916013349028
   2    0.0022543209925491
   3    -0.00083813844310145
   4    0.00058629539429189
   5    -0.00024552253426687
   6    8.7864402517806e-05
   7    4.2493625517019e-07
   8    -1.1156620177583e-09
   9    4.4877918539285e-11
  10    -2.9670780560606e-06
  11    3.2948187878547e-09
  12    -1.4332145148884e-09
  13    -1.4760505238099e-05
  14    -5.2973068545189e-09
  15    8.9297504526269e-09
  16    0.00045078852783429
  17    1.1587312256019e-08
  18    -1.5599450189209e-08
  19    7.9771687400814e-06
  20    -2.602325735791e-12
  21    1.8511934015934e-10
  22    -1.3815787583271e-05
  23    -1.7063441826548e-09
  24    -2.9745572956463e-05
  25    1.7680930810283e-09
  26    5.5323311399965e-10
  27    5.1519409115418e-05
  28    8.760784586154e-09
  29    5.475232080093e-06
  30    -5.0858312047191e-09
  31    -1.6781121953952e-08
  32    -9.4859581287326e-06
  33    -3.6038093305707e-08
  34    -4.170832527007e-05
  35    1.8483761506954e-07
  36    4.1306647825536e-08
  37    7.2408996596758e-05
  38    4.7409539105621e-08
  39    1.3515569096138e-06
  40    -7.9548181889456e-06
  41    3.7353477441087e-07
  42    1.0484742083593e-06
  43    -1.8319736818759e-09
  44    1.0269532450676e-05
  45    9.6180269578149e-08
  46      0.94534830720943
  47    0.0066564440772549
  48    -0.0025870198326295
  49    0.0020441071429559
  50    -0.0021399537242147
  51    0.00019996933316168
  52    6.9894943120426e-07
  53    -1.2042534498163e-09
  54    -2.3764609745156e-09
  55    2.6963270936589e-06
  56    3.6590079268993e-09
  57    5.9206341430228e-10
  58    -1.507874592074e-05
  59    -5.6338565674181e-09
  60    2.4145354103647e-08
  61    -8.1336178058889e-05
  62    -6.4142315545644e-09
  63    -8.2495972683658e-08
  64    1.217531967107e-05
  65    -3.6194438496389e-10
  66    1.3448526252681e-09
  67    -2.1086150833239e-05
  68    2.0006333150342e-09
  69    -5.4689700377987e-05
  70    -1.5433486239195e-09
  71    -4.65942210796e-09
  72    9.4721471586015e-05
  73    -1.1280307245712e-08
  74    0.00021944358294629
  75    3.2537951176132e-08
  76    1.8090079504018e-08
  77    -0.00038011295421353
  78    7.4290594839388e-08
  79    7.8455685087382e-06
  80    -1.1608324828912e-07
  81    8.8254367158396e-08
  82    -1.3468284122576e-05
  83    -5.5799795595085e-08
  84    8.0220909900509e-07
  85    -2.2266625610932e-06
  86    1.3266875092693e-06
  87    6.2284085180328e-07
  88    1.1340650401397e-09
  89    2.875395787659e-06
  90    3.4219879876863e-07
  91    -3.3679289569786e-06
  92    -7.250050731058e-05
  93    0.0003243284092003
  94    -2.2170905106898e-06
  95    3.9156069729751e-06
  96    -7.81852461612e-06
  97    8.6563959404734e-05
  98    1.6852371575725e-05
  99    -0.0001032339552608
 100    1.2177867259408e-05
 101    -9.1186865362684e-06
 102    4.6336044849992e-06
 103    -6.8830140009335e-06
 104    1.6785791890371e-06
 105    -3.366059298913e-06
 106    -7.2458095984408e-05
 107    0.00032413410387258
 108    -2.2103037313285e-06
 109    -8.743843780671e-06
 110    5.2175080172619e-07
 111    8.6538041020339e-05
 112    -9.7840574082098e-05
 113    3.7177688983072e-05
 114     6.40124602972e-06
 115    3.108528949826e-06
 116    -8.4527807956355e-06
 117    -1.0200835872714e-05
 118    -8.7343087409282e-06
 119    -3.3672325017876e-06
 120    -7.2461529790353e-05
 121    0.00032408299693332
 122    -2.2099956211683e-06
 123    4.8229465993566e-06
 124    7.311479598576e-06
 125    8.6504298438593e-05
 126    8.1110841173928e-05
 127    6.6130031272087e-05
 128    -5.0675126089151e-07
 129    6.007937293257e-06
 130    3.8370271744691e-06
 131    -1.418714212957e-05
 132    7.0662183706069e-06
 133    -3.5410974419293e-05
 134    5.8303156615087e-05
 135    -1.5832332329456e-06
 136    7.216689797685e-06
 137    2.3679744079516e-06
 138    -3.5341735384792e-05
 139    5.875464659211e-05
 140    -1.5367478566433e-06